<?xml version="1.0" encoding="UTF-8" ?>
<psml version="1.1" energy_unit="hartree" length_unit="bohr"
 uuid="96c32470-1d5f-11e8-6a8a-1c9affeff6e4"
 xmlns="http://esl.cecam.org/PSML/ns/1.1">
<provenance creator="ONCVPSP-3.3.0+psml-3.3.0-73 (scalar-relativistic)"
 date="2018-03-01">
<annotation action="semilocal-pseudopotential-generation"
 action-cont="projectors-generation" />
<input-file name="oncvpsp-input">
<![CDATA[# atsym z nc nv iexc psfile
Ar 18 3 2 -116133 upf
# n l f
1 0 2.0
2 0 2.0
2 1 6.0
3 0 2.0
3 1 6.0
# lmax
2
# l rc ep ncon nbas qcut
0 1.55 0.0 4 8 8.2
1 1.55 0.0 4 8 8.2
2 1.55 0.1 4 8 8.2
# lloc lpopt rc5 dvloc0
4 5 1.5 0.0
# l nproj debl
0 2 1.5
1 2 1.5
2 2 1.0
# icmod fcfact
3 7 1.25
# epsh1 epsh2 depsh
-12.0 12.0 0.02
# rlmax drl
4.0 0.01
 0
]]>
</input-file>
</provenance>
<pseudo-atom-spec atomic-label="Ar" atomic-number="18" z-pseudo="8"
 flavor="Hamann&apos;s oncvpsp" relativity="scalar" spin-dft="no"
 core-corrections="yes">
<annotation pseudo-energy="-21.1360228228" />
<exchange-correlation>
<annotation oncvpsp-xc-code="-116133" oncvpsp-xc-type="libxc-interface" />
<libxc-info number-of-functionals="2">
<functional name="Perdew, Burke &amp; Ernzerhof SOL (GGA)" type="exchange"
 id="116" />
<functional name="Perdew, Burke &amp; Ernzerhof SOL (GGA)" type="correlation"
 id="133" />
</libxc-info>
</exchange-correlation>
<valence-configuration total-valence-charge="8">
<shell n="3" l="s" occupation="2" />
<shell n="3" l="p" occupation="6" />
</valence-configuration>
</pseudo-atom-spec>
<grid npts="457">
<annotation type="sampled from oncvpsp log grid"
 recipe="r(i:1..N) = r1*exp(a*(i-1)) + r=0; resampled"
 recipe-cont="r1: scale; a: step" scale="0.277777777778E-04"
 step="0.119285708653E-01" delta="0.500000000000E-02" rmax="44.1337637881" />
<grid-data>
  0.000000000000E+00  5.039656670363E-03  1.006631870100E-02  1.510108323112E-02
  2.010668162892E-02  2.522145511185E-02  3.052518740768E-02  3.564552384771E-02
  4.113117834404E-02  4.634216045545E-02  5.159420074619E-02  5.676034011613E-02
  6.244376622769E-02  6.788169478566E-02  7.291816847781E-02  7.832832269358E-02
  8.413988261178E-02  8.931089968118E-02  9.479971393192E-02  1.006258563474E-01
  1.068100582341E-01  1.120299654056E-01  1.175049743093E-01  1.232475520049E-01
  1.292707748288E-01  1.355883581702E-01  1.422146877022E-01  1.473960989515E-01
  1.527662883290E-01  1.583321337255E-01  1.641007636193E-01  1.700795662056E-01
  1.762761988591E-01  1.826985979412E-01  1.893549889646E-01  1.962538971280E-01
  2.034041582349E-01  2.108149300101E-01  2.159048456802E-01  2.211176522743E-01
  2.264563168709E-01  2.319238781854E-01  2.375234483003E-01  2.432582144361E-01
  2.491314407654E-01  2.551464702712E-01  2.613067266495E-01  2.676157162577E-01
  2.740770301110E-01  2.806943459260E-01  2.874714302141E-01  2.944121404252E-01
  3.015204271436E-01  3.088003363365E-01  3.162560116570E-01  3.238916968025E-01
  3.317117379301E-01  3.397205861307E-01  3.479227999622E-01  3.563230480445E-01
  3.649261117165E-01  3.737368877578E-01  3.827603911758E-01  3.920017580603E-01
  4.014662485069E-01  4.111592496109E-01  4.210862785335E-01  4.261393138759E-01
  4.312529856424E-01  4.364280214701E-01  4.416651577278E-01  4.469651396205E-01
  4.523287212960E-01  4.577566659515E-01  4.632497459429E-01  4.688087428942E-01
  4.744344478090E-01  4.801276611827E-01  4.858891931169E-01  4.917198634343E-01
  4.976205017955E-01  5.035919478170E-01  5.096350511908E-01  5.157506718051E-01
  5.219396798668E-01  5.282029560252E-01  5.345413914975E-01  5.409558881955E-01
  5.474473588538E-01  5.540167271600E-01  5.606649278860E-01  5.673929070206E-01
  5.742016219048E-01  5.810920413677E-01  5.880651458641E-01  5.951219276145E-01
  6.022633907459E-01  6.094905514348E-01  6.168044380520E-01  6.242060913086E-01
  6.316965644044E-01  6.392769231772E-01  6.469482462553E-01  6.547116252104E-01
  6.625681647129E-01  6.705189826895E-01  6.785652104817E-01  6.867079930075E-01
  6.949484889236E-01  7.032878707907E-01  7.117273252402E-01  7.202680531431E-01
  7.289112697808E-01  7.376582050182E-01  7.465101034784E-01  7.554682247201E-01
  7.645338434168E-01  7.737082495378E-01  7.829927485322E-01  7.923886615146E-01
  8.018973254528E-01  8.115200933582E-01  8.212583344785E-01  8.311134344923E-01
  8.410867957062E-01  8.511798372546E-01  8.613939953017E-01  8.717307232453E-01
  8.821914919243E-01  8.927777898273E-01  9.034911233053E-01  9.143330167849E-01
  9.253050129864E-01  9.364086731422E-01  9.476455772199E-01  9.590173241465E-01
  9.705255320363E-01  9.821718384207E-01  9.939579004818E-01  1.005885395288E+00
  1.017956020031E+00  1.030171492271E+00  1.042533550179E+00  1.055043952781E+00
  1.067704480214E+00  1.080516933977E+00  1.093483137184E+00  1.106604934831E+00
  1.119884194049E+00  1.133322804377E+00  1.146922678030E+00  1.160685750166E+00
  1.174613979168E+00  1.188709346918E+00  1.202973859081E+00  1.217409545390E+00
  1.232018459935E+00  1.246802681454E+00  1.261764313631E+00  1.276905485395E+00
  1.292228351220E+00  1.307735091434E+00  1.323427912532E+00  1.339309047482E+00
  1.355380756052E+00  1.371645325124E+00  1.388105069026E+00  1.404762329854E+00
  1.421619477812E+00  1.438678911546E+00  1.455943058485E+00  1.473414375187E+00
  1.491095347689E+00  1.508988491861E+00  1.527096353763E+00  1.545421510009E+00
  1.563966568129E+00  1.582734166946E+00  1.601726976950E+00  1.620947700673E+00
  1.640399073081E+00  1.660083861958E+00  1.680004868302E+00  1.700164926721E+00
  1.720566905842E+00  1.741213708712E+00  1.762108273216E+00  1.783253572495E+00
  1.804652615365E+00  1.826308446749E+00  1.848224148110E+00  1.870402837888E+00
  1.892847671942E+00  1.915561844006E+00  1.938548586134E+00  1.961811169167E+00
  1.985352903197E+00  2.009177138036E+00  2.033287263692E+00  2.057686710856E+00
  2.082378951387E+00  2.107367498803E+00  2.132655908789E+00  2.158247779694E+00
  2.184146753051E+00  2.210356514087E+00  2.236880792256E+00  2.263723361763E+00
  2.290888042105E+00  2.318378698610E+00  2.346199242993E+00  2.374353633909E+00
  2.402845877516E+00  2.431680028046E+00  2.460860188383E+00  2.490390510643E+00
  2.520275196771E+00  2.550518499132E+00  2.581124721122E+00  2.612098217775E+00
  2.643443396389E+00  2.675164717145E+00  2.707266693751E+00  2.739753894076E+00
  2.772630940805E+00  2.805902512095E+00  2.839573342240E+00  2.873648222347E+00
  2.908132001015E+00  2.943029585027E+00  2.978345940047E+00  3.014086091328E+00
  3.050255124424E+00  3.086858185917E+00  3.123900484148E+00  3.161387289958E+00
  3.199323937437E+00  3.237715824687E+00  3.276568414583E+00  3.315887235558E+00
  3.355677882384E+00  3.395946016973E+00  3.436697369177E+00  3.477937737607E+00
  3.519672990458E+00  3.561909066344E+00  3.604651975140E+00  3.647907798841E+00
  3.691682692428E+00  3.735982884737E+00  3.780814679353E+00  3.826184455506E+00
  3.872098668972E+00  3.918563852999E+00  3.965586619235E+00  4.013173658666E+00
  4.061331742570E+00  4.110067723481E+00  4.159388536163E+00  4.209301198597E+00
  4.259812812980E+00  4.310930566736E+00  4.362661733537E+00  4.415013674339E+00
  4.467993838431E+00  4.521609764492E+00  4.575869081666E+00  4.630779510646E+00
  4.686348864774E+00  4.742585051151E+00  4.799496071765E+00  4.857090024626E+00
  4.915375104922E+00  4.974359606181E+00  5.034051921455E+00  5.094460544512E+00
  5.155594071047E+00  5.217461199899E+00  5.280070734298E+00  5.343431583109E+00
  5.407552762107E+00  5.472443395252E+00  5.538112715995E+00  5.604570068587E+00
  5.671824909410E+00  5.739886808323E+00  5.808765450023E+00  5.878470635423E+00
  5.949012283048E+00  6.020400430445E+00  6.092645235610E+00  6.165756978437E+00
  6.239746062179E+00  6.314623014925E+00  6.390398491104E+00  6.467083272997E+00
  6.544688272273E+00  6.623224531540E+00  6.702703225919E+00  6.783135664630E+00
  6.864533292606E+00  6.946907692117E+00  7.030270584422E+00  7.114633831435E+00
  7.200009437412E+00  7.286409550661E+00  7.373846465269E+00  7.462332622853E+00
  7.551880614327E+00  7.642503181699E+00  7.734213219879E+00  7.827023778518E+00
  7.920948063860E+00  8.015999440626E+00  8.112191433914E+00  8.209537731121E+00
  8.308052183894E+00  8.407748810101E+00  8.508641795822E+00  8.610745497372E+00
  8.714074443340E+00  8.818643336661E+00  8.924467056700E+00  9.031560661381E+00
  9.139939389317E+00  9.249618661989E+00  9.360614085933E+00  9.472941454964E+00
  9.586616752424E+00  9.701656153453E+00  9.818076027294E+00  9.935892939622E+00
  1.005512365490E+01  1.017578513876E+01  1.029789456042E+01  1.042146929515E+01
  1.054652692669E+01  1.067308524981E+01  1.080116227281E+01  1.093077622008E+01
  1.106194553472E+01  1.119468888114E+01  1.132902514771E+01  1.146497344948E+01
  1.160255313088E+01  1.174178376845E+01  1.188268517367E+01  1.202527739575E+01
  1.216958072450E+01  1.231561569320E+01  1.246340308151E+01  1.261296391849E+01
  1.276431948551E+01  1.291749131934E+01  1.307250121517E+01  1.322937122976E+01
  1.338812368451E+01  1.354878116873E+01  1.371136654275E+01  1.387590294126E+01
  1.404241377656E+01  1.421092274188E+01  1.438145381478E+01  1.455403126056E+01
  1.472867963568E+01  1.490542379131E+01  1.508428887681E+01  1.526530034333E+01
  1.544848394745E+01  1.563386575482E+01  1.582147214388E+01  1.601132980960E+01
  1.620346576732E+01  1.639790735653E+01  1.659468224481E+01  1.679381843174E+01
  1.699534425292E+01  1.719928838396E+01  1.740567984457E+01  1.761454800270E+01
  1.782592257873E+01  1.803983364968E+01  1.825631165347E+01  1.847538739332E+01
  1.869709204204E+01  1.892145714654E+01  1.914851463230E+01  1.937829680789E+01
  1.961083636958E+01  1.984616640602E+01  2.008432040289E+01  2.032533224772E+01
  2.056923623470E+01  2.081606706951E+01  2.106585987435E+01  2.131865019284E+01
  2.157447399515E+01  2.183336768309E+01  2.209536809529E+01  2.236051251243E+01
  2.262883866258E+01  2.290038472654E+01  2.317518934325E+01  2.345329161537E+01
  2.373473111476E+01  2.401954788813E+01  2.430778246279E+01  2.459947585235E+01
  2.489466956257E+01  2.519340559732E+01  2.549572646449E+01  2.580167518207E+01
  2.611129528425E+01  2.642463082766E+01  2.674172639759E+01  2.706262711436E+01
  2.738737863974E+01  2.771602718341E+01  2.804861950962E+01  2.838520294373E+01
  2.872582537906E+01  2.907053528360E+01  2.941938170701E+01  2.977241428749E+01
  3.012968325894E+01  3.049123945805E+01  3.085713433155E+01  3.122741994352E+01
  3.160214898285E+01  3.198137477064E+01  3.236515126789E+01  3.275353308310E+01
  3.314657548010E+01  3.354433438586E+01  3.394686639849E+01  3.435422879527E+01
  3.476647954082E+01  3.518367729531E+01  3.560588142285E+01  3.603315199992E+01
  3.646554982392E+01  3.690313642181E+01  3.734597405887E+01  3.779412574758E+01
  3.824765525655E+01  3.870662711963E+01  3.917110664506E+01  3.964115992480E+01
  4.011685384390E+01  4.059825609003E+01  4.108543516311E+01  4.157846038507E+01
  4.207740190969E+01  4.258233073260E+01  4.309331870139E+01  4.361043852581E+01
  4.413376378812E+01
</grid-data>
</grid>
<valence-charge total-charge="8" is-unscreening-charge="yes"
 rescaled-to-z-pseudo="no">
<radfunc>
<data npts="457">
  4.529318857637E-02  4.557232074007E-02  4.640688412718E-02  4.779970182251E-02
  4.973719219483E-02  5.228655173633E-02  5.553858560967E-02  5.926644877558E-02
  6.390220929991E-02  6.892158580664E-02  7.458836077729E-02  8.075866166444E-02
  8.823097166146E-02  9.605271223979E-02  1.038844527247E-01  1.129278165312E-01
  1.233712100058E-01  1.332997582122E-01  1.444953701843E-01  1.571207578307E-01
  1.713597127222E-01  1.840512853100E-01  1.980264451976E-01  2.134158775578E-01
  2.303636377868E-01  2.490284964973E-01  2.695854038541E-01  2.863599571531E-01
  3.043952015961E-01  3.237861384837E-01  3.446348128609E-01  3.670507842934E-01
  3.911516136531E-01  4.170633619746E-01  4.449210959573E-01  4.748693928496E-01
  5.070628351898E-01  5.416664831246E-01  5.661610237226E-01  5.918596579976E-01
  6.188195724146E-01  6.471002584871E-01  6.767635344636E-01  7.078735540376E-01
  7.404967995712E-01  7.747020569886E-01  8.105603691368E-01  8.481449640130E-01
  8.875311538320E-01  9.287962004487E-01  9.720191421578E-01  1.017280576378E+00
  1.064662392185E+00  1.114247446085E+00  1.166119173879E+00  1.220361130853E+00
  1.277056452006E+00  1.336287223479E+00  1.398133755881E+00  1.462673749796E+00
  1.529981343470E+00  1.600126032523E+00  1.673171451574E+00  1.749174007935E+00
  1.828181358116E+00  1.910230718802E+00  1.995347005327E+00  2.039059170052E+00
  2.083540792564E+00  2.128790589911E+00  2.174806095589E+00  2.221583580409E+00
  2.269117970670E+00  2.317402763723E+00  2.366429941030E+00  2.416189878842E+00
  2.466671256659E+00  2.517860963639E+00  2.569744003191E+00  2.622303395978E+00
  2.675520081623E+00  2.729372819440E+00  2.783838088530E+00  2.838889987662E+00
  2.894500135372E+00  2.950637570766E+00  3.007268655567E+00  3.064356977990E+00
  3.121863259077E+00  3.179745262182E+00  3.237957706332E+00  3.296452184268E+00
  3.355177086003E+00  3.414077528784E+00  3.473095294411E+00  3.532168774900E+00
  3.591232927537E+00  3.650219240395E+00  3.709055709445E+00  3.767666828417E+00
  3.825973592584E+00  3.883893517696E+00  3.941340675264E+00  3.998225745431E+00
  4.054456088643E+00  4.109935837328E+00  4.164566008744E+00  4.218244640142E+00
  4.270866947296E+00  4.322325507411E+00  4.372510467301E+00  4.421309777637E+00
  4.468609453939E+00  4.514293864802E+00  4.558246047732E+00  4.600348052736E+00
  4.640481313605E+00  4.678527046628E+00  4.714366676174E+00  4.747882286366E+00
  4.778957097725E+00  4.807475967419E+00  4.833325911370E+00  4.856396646199E+00
  4.876581148619E+00  4.893776229547E+00  4.907883119877E+00  4.918808064498E+00
  4.926462920820E+00  4.930765757748E+00  4.931641450754E+00  4.929022268397E+00
  4.922848445442E+00  4.913068737462E+00  4.899640951698E+00  4.882532448796E+00
  4.861720610002E+00  4.837193264363E+00  4.808949070568E+00  4.776997848179E+00
  4.741360853164E+00  4.702070992970E+00  4.659172976645E+00  4.612723395971E+00
  4.562790734026E+00  4.509455298135E+00  4.452809074795E+00  4.392955504800E+00
  4.330009177514E+00  4.264095444010E+00  4.195349949560E+00  4.123918086794E+00
  4.049954371681E+00  3.973621745301E+00  3.895090805229E+00  3.814538971158E+00
  3.732149590177E+00  3.648110987872E+00  3.562615472144E+00  3.475858297265E+00
  3.388036596321E+00  3.299348290693E+00  3.209990985704E+00  3.120160861925E+00
  3.030051571926E+00  2.939853152457E+00  2.849750962189E+00  2.759924655100E+00
  2.670547199583E+00  2.581783953113E+00  2.493791802060E+00  2.406718375831E+00
  2.320701344036E+00  2.235867804799E+00  2.152333771610E+00  2.070203765387E+00
  1.989570517617E+00  1.910515070573E+00  1.833108177997E+00  1.757412523153E+00
  1.683483321835E+00  1.611368141259E+00  1.541107331081E+00  1.472734255142E+00
  1.406275572135E+00  1.341751524692E+00  1.279176238076E+00  1.218558026427E+00
  1.159899704404E+00  1.103198902595E+00  1.048448384626E+00  9.956363644045E-01
  9.447468219047E-01  8.957598160339E-01  8.486517932385E-01  8.033958906291E-01
  7.599622325240E-01  7.183182194246E-01  6.784288085762E-01  6.402567852260E-01
  6.037630241978E-01  5.689067409585E-01  5.356457318728E-01  5.039366032645E-01
  4.737349890232E-01  4.449957565776E-01  4.176732011370E-01  3.917212281745E-01
  3.670935241939E-01  3.437437158840E-01  3.216255178195E-01  3.006928689213E-01
  2.809000579298E-01  2.622018381913E-01  2.445535320875E-01  2.279111254706E-01
  2.122313524932E-01  1.974717712399E-01  1.835908305861E-01  1.705479287203E-01
  1.583034637732E-01  1.468188770015E-01  1.360566889720E-01  1.259805291885E-01
  1.165551595959E-01  1.077464923862E-01  9.952160251453E-02  9.184873532218E-02
  8.469730964295E-02  7.803791675138E-02  7.184231549292E-02  6.608342391592E-02
  6.073530770657E-02  5.577316570970E-02  5.117331280111E-02  4.691316036163E-02
  4.297119458870E-02  3.932695286925E-02  3.596099842640E-02  3.285489344344E-02
  2.999117086043E-02  2.735330503173E-02  2.492568142644E-02  2.269356554811E-02
  2.064307124417E-02  1.876112857004E-02  1.703545136682E-02  1.545450470483E-02
  1.400747233836E-02  1.268422430924E-02  1.147528482846E-02  1.037180055600E-02
  9.365509389645E-03  8.448709863320E-03  7.614231245275E-03  6.855404415795E-03
  6.166033593405E-03  5.540368967979E-03  4.973080288679E-03  4.459231444535E-03
  3.994256065752E-03  3.573934164633E-03  3.194369826355E-03  2.851969951935E-03
  2.543424048406E-03  2.265685054767E-03  2.015951186490E-03  1.791648776416E-03
  1.590416085643E-03  1.410088054518E-03  1.248681961119E-03  1.104383952455E-03
  9.755364121785E-04  8.606261276312E-04  7.582732186508E-04  6.672207905495E-04
  5.863252740565E-04  5.145474156973E-04  4.509438830054E-04  3.946594500772E-04
  3.449197302346E-04  3.010244238986E-04  2.623410511775E-04  2.282991400881E-04
  1.983848427406E-04  1.721359531997E-04  1.491373020826E-04  1.290165042441E-04
  1.114400371340E-04  9.610962859259E-05  8.275893395767E-05  7.115048342073E-05
  6.107288156593E-05  5.233824197765E-05  4.477984070324E-05  3.824997321659E-05
  3.261800034793E-05  2.776856942936E-05  2.359999765824E-05  2.002280540406E-05
  1.695838788071E-05  1.433781427812E-05  1.210074409511E-05  1.019445104063E-05
  8.572945474225E-06  7.196186937713E-06  6.029378890394E-06  5.042338297951E-06
  4.208933241718E-06  3.506582209144E-06  2.915809198279E-06  2.419849218678E-06
  2.004299198139E-06  1.656809709168E-06  1.366813311106E-06  1.125285663547E-06
  9.245359043612E-07  7.580231017045E-07  6.201958842717E-07  5.063526283297E-07
  4.125198344322E-07  3.353465618329E-07  2.720130053123E-07  2.201514982256E-07
  1.777784079417E-07  1.432355563732E-07  1.151399499157E-07  9.234074072428E-08
  7.388246579626E-08  5.897372268704E-08  4.696054175990E-08  3.730380552095E-08
  2.956014664896E-08  2.336582859856E-08  1.842317689496E-08  1.448918617350E-08
  1.136597832712E-08  8.892831450814E-09  6.939538208254E-09  5.400886346977E-09
  4.192083866174E-09  3.244977265300E-09  2.504933804133E-09  1.928278178177E-09
  1.480190814489E-09  1.132989444853E-09  8.647280064017E-10  6.580575149754E-10
  4.993025867629E-10  3.777149563498E-10  2.848718380118E-10  2.141924642883E-10
  1.605507543323E-10  1.199659394324E-10  8.935621372145E-11  6.634317948566E-11
  4.909710105341E-11  3.621484009649E-11  2.662387949383E-11  1.950710511535E-11
  1.424404973193E-11  1.036514880990E-11  7.516246454754E-12  5.431148449691E-12
  3.910471080354E-12  2.805398421755E-12  2.005252986645E-12  1.428018396715E-12
  1.013139051287E-12  7.160697156999E-13  5.041649954064E-13  3.535909081291E-13
  2.470131918215E-13  1.718736306205E-13  1.191098104034E-13  8.220795970102E-14
  5.650499915039E-14  3.867629708950E-14  2.636124913254E-14  1.789072203702E-14
  1.208949676475E-14  8.133624782551E-15  5.447941804227E-15  3.632701396101E-15
  2.411303907376E-15  1.593216599119E-15  1.047787831799E-15  6.858384159428E-16
  4.467798433247E-16  2.896411146219E-16  0.000000000000E+00  0.000000000000E+00
  0.000000000000E+00  0.000000000000E+00  0.000000000000E+00  0.000000000000E+00
  0.000000000000E+00  0.000000000000E+00  0.000000000000E+00  0.000000000000E+00
  0.000000000000E+00  0.000000000000E+00  0.000000000000E+00  0.000000000000E+00
  0.000000000000E+00  0.000000000000E+00  0.000000000000E+00  0.000000000000E+00
  0.000000000000E+00  0.000000000000E+00  0.000000000000E+00  0.000000000000E+00
  0.000000000000E+00  0.000000000000E+00  0.000000000000E+00  0.000000000000E+00
  0.000000000000E+00  0.000000000000E+00  0.000000000000E+00  0.000000000000E+00
  0.000000000000E+00  0.000000000000E+00  0.000000000000E+00  0.000000000000E+00
  0.000000000000E+00  0.000000000000E+00  0.000000000000E+00  0.000000000000E+00
  0.000000000000E+00  0.000000000000E+00  0.000000000000E+00  0.000000000000E+00
  0.000000000000E+00  0.000000000000E+00  0.000000000000E+00  0.000000000000E+00
  0.000000000000E+00  0.000000000000E+00  0.000000000000E+00  0.000000000000E+00
  0.000000000000E+00  0.000000000000E+00  0.000000000000E+00  0.000000000000E+00
  0.000000000000E+00  0.000000000000E+00  0.000000000000E+00  0.000000000000E+00
  0.000000000000E+00  0.000000000000E+00  0.000000000000E+00  0.000000000000E+00
  0.000000000000E+00  0.000000000000E+00  0.000000000000E+00  0.000000000000E+00
  0.000000000000E+00
</data>
</radfunc>
</valence-charge>
<pseudocore-charge matching-radius="0.746510103478"
 number-of-continuous-derivatives="4">
<annotation model-charge-form="Teter function with specified parameters" />
<radfunc>
<data npts="256">
  3.217072741186E+01  3.216776280424E+01  3.215890106406E+01  3.214411820006E+01
  3.212356819398E+01  3.209655284081E+01  3.206213152848E+01  3.202272908270E+01
  3.197381252413E+01  3.192095023426E+01  3.186139683678E+01  3.179670420981E+01
  3.171857211045E+01  3.163703276604E+01  3.155563994363E+01  3.146196486727E+01
  3.135419727964E+01  3.125214591279E+01  3.113753809680E+01  3.100888189745E+01
  3.086452235022E+01  3.073650355310E+01  3.059624054733E+01  3.044262529780E+01
  3.027446271922E+01  3.009046668952E+01  2.988925656398E+01  2.972616686016E+01
  2.955190486911E+01  2.936577897367E+01  2.916706608455E+01  2.895501206143E+01
  2.872883252178E+01  2.848771410608E+01  2.823081627606E+01  2.795727373073E+01
  2.766619953403E+01  2.735668905607E+01  2.713965365045E+01  2.691374290352E+01
  2.667868250580E+01  2.643419867647E+01  2.618001929499E+01  2.591587515867E+01
  2.564150137436E+01  2.535663889194E+01  2.506103618766E+01  2.475445110446E+01
  2.443665285645E+01  2.410742420375E+01  2.376656380315E+01  2.341388873891E+01
  2.304923723665E+01  2.267247156158E+01  2.228348110018E+01  2.188218562226E+01
  2.146853871718E+01  2.104253139488E+01  2.060419583858E+01  2.015360929162E+01
  1.969089805604E+01  1.921624157505E+01  1.872987656561E+01  1.823210116050E+01
  1.772327901233E+01  1.720384330399E+01  1.667430060215E+01  1.640591839451E+01
  1.613523448150E+01  1.586233438644E+01  1.558730883884E+01  1.531025385455E+01
  1.503127080736E+01  1.475046649124E+01  1.446795317213E+01  1.418384862854E+01
  1.389827618002E+01  1.361136470242E+01  1.332324862906E+01  1.303406793674E+01
  1.274396811568E+01  1.245310012217E+01  1.216162031313E+01  1.186969036141E+01
  1.157747715082E+01  1.128515264998E+01  1.099289376388E+01  1.070088216232E+01
  1.040930408425E+01  1.011835011719E+01  9.828214950919E+00  9.539097104689E+00
  9.251198627373E+00  8.964724769954E+00  8.679883629934E+00  8.396885767355E+00
  8.115943792234E+00  7.837271923402E+00  7.561085518867E+00  7.287600578009E+00
  7.017033216144E+00  6.749599112132E+00  6.485512930001E+00  6.224987715747E+00
  5.968234270740E+00  5.715460503422E+00  5.466870761271E+00  5.222665145256E+00
  4.983038809347E+00  4.748181247896E+00  4.518275574040E+00  4.293497792566E+00
  4.074016070981E+00  3.859990012825E+00  3.651569937564E+00  3.448896171668E+00
  3.252098355724E+00  3.061294772713E+00  2.876591702730E+00  2.698082809668E+00
  2.525848565485E+00  2.359955717791E+00  2.200456806544E+00  2.047389735641E+00
  1.900777405120E+00  1.760627409586E+00  1.626931808251E+00  1.499666971738E+00
  1.378793510422E+00  1.264256288686E+00  1.155984528928E+00  1.053892008575E+00
  9.578773526640E-01  8.678244238022E-01  7.836028104378E-01  7.050684134715E-01
  6.320641302228E-01  5.644206337024E-01  5.019572440274E-01  4.444828876469E-01
  3.917971388597E-01  3.436913369013E-01  2.999497706783E-01  2.603509220573E-01
  2.246687574916E-01  1.926740567094E-01  1.641357662320E-01  1.388223646429E-01
  1.165032258335E-01  9.694996592052E-02  7.993775918934E-02  6.524660829658E-02
  5.266255406958E-02  4.197881059987E-02  3.299681194497E-02  2.552715764007E-02
  1.939044537755E-02  1.441798063528E-02  1.045235471085E-02  7.347884531636E-03
  4.970909731518E-03  3.199944782004E-03  1.925686395399E-03  1.050878932758E-03
  4.900430940489E-04  1.690756818627E-04  2.473064860670E-05  3.993893467184E-06
  6.336630220145E-05  1.680712545237E-04  2.912041991957E-04  4.128428614393E-04
  5.191371558319E-04  6.013978972225E-04  6.552029134131E-04  6.795381636527E-04
  6.759899713867E-04  6.480025219480E-04  6.002124086155E-04  5.378693046829E-04
  4.663488826135E-04  3.907609960341E-04  3.156529990982E-04  2.448050200050E-04
  1.811111519681E-04  1.265379922394E-04  8.214985417839E-05  4.818838889812E-05
  2.419334983864E-05  9.150857081394E-06  1.655779007112E-06  7.572480338370E-08
  2.705576690810E-06  7.903398041511E-06  1.420081715826E-05  2.038346844919E-05
  2.553962071696E-05  2.907757889584E-05  3.071465883648E-05  3.044236886518E-05
  2.847377751872E-05  2.517983017096E-05  2.102156641842E-05  1.648479904204E-05
  1.202290391093E-05  8.012040079495E-06  4.721506410436E-06  2.300203947066E-06
  7.784792300749E-07  8.313308739473E-08  6.222967673880E-08  5.156324054093E-07
  1.226979654850E-06  1.993092810596E-06  2.647526221505E-06  3.076018896980E-06
  3.222849511348E-06  3.088367887312E-06  2.719115543655E-06  2.192813543285E-06
  1.600985481783E-06  1.032048183744E-06  5.573543281455E-07  2.219809257020E-07
  4.114559255982E-08  0.000000000000E+00  0.000000000000E+00  0.000000000000E+00
  0.000000000000E+00  0.000000000000E+00  0.000000000000E+00  0.000000000000E+00
  0.000000000000E+00  0.000000000000E+00  0.000000000000E+00  0.000000000000E+00
  0.000000000000E+00  0.000000000000E+00  0.000000000000E+00  0.000000000000E+00
  0.000000000000E+00  0.000000000000E+00  0.000000000000E+00  0.000000000000E+00
  0.000000000000E+00  0.000000000000E+00  0.000000000000E+00  0.000000000000E+00
  0.000000000000E+00  0.000000000000E+00  0.000000000000E+00  0.000000000000E+00
  0.000000000000E+00  0.000000000000E+00  0.000000000000E+00  0.000000000000E+00
</data>
</radfunc>
</pseudocore-charge>
<semilocal-potentials set="scalar_relativistic">
<slps n="3" l="s" rc="1.56396656813" eref="-0.889369775147">
<radfunc>
<data npts="256">
  4.828498642741E+01  4.825435325398E+01  4.816294773219E+01  4.801100878340E+01
  4.780091074663E+01  4.752666909702E+01  4.718042778596E+01  4.678839166389E+01
  4.630798094079E+01  4.579648751900E+01  4.522957163362E+01  4.462464079830E+01
  4.390875103475E+01  4.317826944585E+01  4.246547411815E+01  4.166465834974E+01
  4.076825411900E+01  3.994295799578E+01  3.904228442128E+01  3.806273054418E+01
  3.700137503737E+01  3.609190742618E+01  3.512799524775E+01  3.410939430850E+01
  3.303636059771E+01  3.190970349450E+01  3.073083206106E+01  2.981361859098E+01
  2.886927773627E+01  2.789912793073E+01  2.690469972579E+01  2.588773252605E+01
  2.485016800453E+01  2.379414011301E+01  2.272196169453E+01  2.163610780394E+01
  2.053919594506E+01  1.943396353353E+01  1.869391501129E+01  1.795228313788E+01
  1.720993495046E+01  1.646774352860E+01  1.572658418058E+01  1.498733062247E+01
  1.425085118805E+01  1.351800510691E+01  1.278963888717E+01  1.206658283774E+01
  1.134964776270E+01  1.063962185811E+01  9.937267838127E+00  9.243320314321E+00
  8.558483448162E+00  7.883428892902E+00  7.218794037183E+00  6.565180558703E+00
  5.923153292401E+00  5.293239413847E+00  4.675927935020E+00  4.071669506287E+00
  3.480876515479E+00  2.903923472248E+00  2.341147663634E+00  1.792850064848E+00
  1.259296487713E+00  7.407189480848E-01  2.373172326811E-01 -8.638643862452E-03
 -2.507393547114E-01 -4.889681872070E-01 -7.233100879694E-01 -9.537515960854E-01
 -1.180280774603E+00 -1.402887140486E+00 -1.621561593172E+00 -1.836296341927E+00
 -2.047084832093E+00 -2.253921670406E+00 -2.456802549587E+00 -2.655724172264E+00
 -2.850684174459E+00 -3.041681048778E+00 -3.228714067450E+00 -3.411783205416E+00
 -3.590889063624E+00 -3.766032792735E+00 -3.937216017429E+00 -4.104440761553E+00
 -4.267709374334E+00 -4.427024457940E+00 -4.582388796684E+00 -4.733805288213E+00
 -4.881276877076E+00 -5.024806491103E+00 -5.164396981114E+00 -5.300051064544E+00
 -5.431771273638E+00 -5.559559909023E+00 -5.683418999508E+00 -5.803350269139E+00
 -5.919355112645E+00 -6.031434580537E+00 -6.139589375287E+00 -6.243819860108E+00
 -6.344126081974E+00 -6.440507810603E+00 -6.532964595108E+00 -6.621495840000E+00
 -6.706100902041E+00 -6.786779209195E+00 -6.863530402457E+00 -6.936354500776E+00
 -7.005252088496E+00 -7.070224523755E+00 -7.131274165168E+00 -7.188404612835E+00
 -7.241620958421E+00 -7.290930037703E+00 -7.336340677916E+00 -7.377863931349E+00
 -7.415513286298E+00 -7.449304846729E+00 -7.479257472986E+00 -7.505392877638E+00
 -7.527735673082E+00 -7.546313370735E+00 -7.561156335213E+00 -7.572297700622E+00
 -7.579773259496E+00 -7.583621337713E+00 -7.583882670393E+00 -7.580600294296E+00
 -7.573819471287E+00 -7.563587655225E+00 -7.549954511310E+00 -7.532971992948E+00
 -7.512694476861E+00 -7.489178953107E+00 -7.462485263038E+00 -7.432676375491E+00
 -7.399818689648E+00 -7.363982352032E+00 -7.325241574998E+00 -7.283674944528E+00
 -7.239365706006E+00 -7.192402017771E+00 -7.142877163444E+00 -7.090889715267E+00
 -7.036543641957E+00 -6.979948355938E+00 -6.921218696273E+00 -6.860474845281E+00
 -6.797842178729E+00 -6.733451051629E+00 -6.667436523973E+00 -6.599938033227E+00
 -6.531099022847E+00 -6.461066538428E+00 -6.389990805221E+00 -6.318024802455E+00
 -6.245323851179E+00 -6.172045232972E+00 -6.098347856870E+00 -6.024391991119E+00
 -5.950339074739E+00 -5.876351621394E+00 -5.802593224481E+00 -5.729228667579E+00
 -5.656424138326E+00 -5.584347536135E+00 -5.513168854851E+00 -5.443060610322E+00
 -5.374198269771E+00 -5.306760642393E+00 -5.240929935780E+00 -5.176891500748E+00
 -5.114837612542E+00 -5.054238510816E+00 -4.994338776695E+00 -4.935161843073E+00
 -4.876692304091E+00 -4.818918027346E+00 -4.761828109885E+00 -4.705411312942E+00
 -4.649657386871E+00 -4.594556755875E+00 -4.540100611301E+00 -4.486280901630E+00
 -4.433090296305E+00 -4.380522117950E+00 -4.328570246070E+00 -4.277228996978E+00