<?xml version="1.0" encoding="UTF-8" ?>
<psml version="1.1" energy_unit="hartree" length_unit="bohr"
 uuid="b9a23d40-1d65-11e8-782c-847bf7ff739e"
 xmlns="http://esl.cecam.org/PSML/ns/1.1">
<provenance creator="ONCVPSP-3.3.0+psml-3.3.0-73 (scalar-relativistic)"
 date="2018-03-01">
<annotation action="semilocal-pseudopotential-generation"
 action-cont="projectors-generation" />
<input-file name="oncvpsp-input">
<![CDATA[# atsym z nc nv iexc psfile
Nb 41 6 4 -116133 upf
# n l f
1 0 2.0
2 0 2.0
2 1 6.0
3 0 2.0
3 1 6.0
3 2 10.0
4 0 2.0
4 1 6.0
4 2 4.0
5 0 1.0
# lmax
2
# l rc ep ncon nbas qcut
0 1.5 0.0 4 7 7.8
1 1.4 0.0 4 7 9.0
2 1.4 0.0 4 7 9.2
# lloc lpopt rc5 dvloc0
4 5 1.25 0.0
# l nproj debl
0 2 1.0
1 2 1.8
2 2 1.5
# icmod fcfact rcfact
3 5.0 1.5
# epsh1 epsh2 depsh
-12.0 12.0 0.02
# rlmax drl
6.0 0.01
 0
]]>
</input-file>
</provenance>
<pseudo-atom-spec atomic-label="Nb" atomic-number="41" z-pseudo="13"
 flavor="Hamann&apos;s oncvpsp" relativity="scalar" spin-dft="no"
 core-corrections="yes">
<annotation pseudo-energy="-57.0731901211" />
<exchange-correlation>
<annotation oncvpsp-xc-code="-116133" oncvpsp-xc-type="libxc-interface" />
<libxc-info number-of-functionals="2">
<functional name="Perdew, Burke &amp; Ernzerhof SOL (GGA)" type="exchange"
 id="116" />
<functional name="Perdew, Burke &amp; Ernzerhof SOL (GGA)" type="correlation"
 id="133" />
</libxc-info>
</exchange-correlation>
<valence-configuration total-valence-charge="13">
<shell n="4" l="s" occupation="2" />
<shell n="4" l="p" occupation="6" />
<shell n="4" l="d" occupation="4" />
<shell n="5" l="s" occupation="1" />
</valence-configuration>
</pseudo-atom-spec>
<grid npts="457">
<annotation type="sampled from oncvpsp log grid"
 recipe="r(i:1..N) = r1*exp(a*(i-1)) + r=0; resampled"
 recipe-cont="r1: scale; a: step" scale="0.121951219512E-04"
 step="0.119285708653E-01" delta="0.500000000000E-02" rmax="44.1280744696" />
<grid-data>
  0.000000000000E+00  5.039007004218E-03  1.006502104386E-02  1.509913653849E-02
  2.010408966061E-02  2.521820379404E-02  3.052125238152E-02  3.564092875491E-02
  4.112587609116E-02  4.633618645073E-02  5.158754969678E-02  5.675302309559E-02
  6.243571655217E-02  6.787294410245E-02  7.290876853877E-02  7.831822532726E-02
  8.412903607266E-02  8.929938654214E-02  9.478749322547E-02  1.006128845883E-01
  1.067962892646E-01  1.120155235337E-01  1.174898266497E-01  1.232316640651E-01
  1.292541104306E-01  1.355708793673E-01  1.421963546938E-01  1.473770980033E-01
  1.527465951054E-01  1.583117230044E-01  1.640796092595E-01  1.700576411136E-01
  1.762534749543E-01  1.826750461198E-01  1.893305790625E-01  1.962285978822E-01
  2.033779372432E-01  2.107877536900E-01  2.158770132150E-01  2.210891478221E-01
  2.264271242071E-01  2.318939806940E-01  2.374928289639E-01  2.432268558264E-01
  2.490993250334E-01  2.551135791370E-01  2.612730413917E-01  2.675812177031E-01
  2.740416986233E-01  2.806581613949E-01  2.874343720436E-01  2.943741875222E-01
  3.014815579057E-01  3.087605286398E-01  3.162152428433E-01  3.238499436665E-01
  3.316689767064E-01  3.396767924800E-01  3.478779489576E-01  3.562771141573E-01
  3.648790688015E-01  3.736887090386E-01  3.827110492296E-01  3.919512248022E-01
  4.014144951739E-01  4.111062467454E-01  4.210319959668E-01  4.260843799184E-01
  4.311973924774E-01  4.363717611871E-01  4.416082223214E-01  4.469075209892E-01
  4.522704112411E-01  4.576976561760E-01  4.631900280501E-01  4.687483083867E-01
  4.743732880873E-01  4.800657675444E-01  4.858265567549E-01  4.916564754360E-01
  4.975563531412E-01  5.035270293789E-01  5.095693537315E-01  5.156841859762E-01
  5.218723962079E-01  5.281348649624E-01  5.344724833420E-01  5.408861531421E-01
  5.473767869798E-01  5.539453084236E-01  5.605926521246E-01  5.673197639501E-01
  5.741276011175E-01  5.810171323309E-01  5.879893379189E-01  5.950452099739E-01
  6.021857524936E-01  6.094119815236E-01  6.167249253018E-01  6.241256244055E-01
  6.316151318983E-01  6.391945134811E-01  6.468648476429E-01  6.546272258146E-01
  6.624827525244E-01  6.704325455547E-01  6.784777361013E-01  6.866194689345E-01
  6.948589025618E-01  7.031972093925E-01  7.116355759052E-01  7.201752028161E-01
  7.288173052499E-01  7.375631129129E-01  7.464138702678E-01  7.553708367110E-01
  7.644352867516E-01  7.736085101926E-01  7.828918123149E-01  7.922865140627E-01
  8.017939522314E-01  8.114154796582E-01  8.211524654141E-01  8.310062949991E-01
  8.409783705390E-01  8.510701109855E-01  8.612829523173E-01  8.716183477452E-01
  8.820777679181E-01  8.926627011331E-01  9.033746535467E-01  9.142151493893E-01
  9.251857311819E-01  9.362879599561E-01  9.475234154756E-01  9.588936964613E-01
  9.704004208188E-01  9.820452258687E-01  9.938297685791E-01  1.005755725802E+00
  1.017824794512E+00  1.030038692046E+00  1.042399156350E+00  1.054907946227E+00
  1.067566841581E+00  1.080377643680E+00  1.093342175404E+00  1.106462281509E+00
  1.119739828887E+00  1.133176706834E+00  1.146774827316E+00  1.160536125244E+00
  1.174462558747E+00  1.188556109452E+00  1.202818782765E+00  1.217252608158E+00
  1.231859639456E+00  1.246641955130E+00  1.261601658591E+00  1.276740878494E+00
  1.292061769036E+00  1.307566510265E+00  1.323257308388E+00  1.339136396089E+00
  1.355206032842E+00  1.371468505236E+00  1.387926127299E+00  1.404581240826E+00
  1.421436215716E+00  1.438493450305E+00  1.455755371708E+00  1.473224436169E+00
  1.490903129403E+00  1.508793966956E+00  1.526899494559E+00  1.545222288494E+00
  1.563764955956E+00  1.582530135427E+00  1.601520497052E+00  1.620738743017E+00
  1.640187607933E+00  1.659869859228E+00  1.679788297539E+00  1.699945757110E+00
  1.720345106195E+00  1.740989247469E+00  1.761881118439E+00  1.783023691860E+00
  1.804419976162E+00  1.826073015876E+00  1.847985892067E+00  1.870161722772E+00
  1.892603663445E+00  1.915314907406E+00  1.938298686295E+00  1.961558270531E+00
  1.985096969777E+00  2.008918133414E+00  2.033025151015E+00  2.057421452828E+00
  2.082110510262E+00  2.107095836385E+00  2.132380986421E+00  2.157969558258E+00
  2.183865192957E+00  2.210071575273E+00  2.236592434176E+00  2.263431543386E+00
  2.290592721907E+00  2.318079834570E+00  2.345896792585E+00  2.374047554096E+00
  2.402536124745E+00  2.431366558242E+00  2.460542956941E+00  2.490069472424E+00
  2.519950306093E+00  2.550189709766E+00  2.580791986283E+00  2.611761490119E+00
  2.643102628000E+00  2.674819859536E+00  2.706917697851E+00  2.739400710225E+00
  2.772273518748E+00  2.805540800972E+00  2.839207290584E+00  2.873277778071E+00
  2.907757111408E+00  2.942650196745E+00  2.977961999106E+00  3.013697543095E+00
  3.049861913612E+00  3.086460256576E+00  3.123497779655E+00  3.160979753010E+00
  3.198911510046E+00  3.237298448167E+00  3.276146029545E+00  3.315459781900E+00
  3.355245299282E+00  3.395508242874E+00  3.436254341788E+00  3.477489393890E+00
  3.519219266616E+00  3.561449897816E+00  3.604187296590E+00  3.647437544149E+00
  3.691206794678E+00  3.735501276215E+00  3.780327291529E+00  3.825691219028E+00
  3.871599513656E+00  3.918058707820E+00  3.965075412314E+00  4.012656317261E+00
  4.060808193068E+00  4.109537891385E+00  4.158852346082E+00  4.208758574235E+00
  4.259263677126E+00  4.310374841251E+00  4.362099339346E+00  4.414444531418E+00
  4.467417865795E+00  4.521026880185E+00  4.575279202747E+00  4.630182553180E+00
  4.685744743818E+00  4.741973680744E+00  4.798877364913E+00  4.856463893292E+00
  4.914741460011E+00  4.973718357532E+00  5.033402977822E+00  5.093803813556E+00
  5.154929459319E+00  5.216788612830E+00  5.279390076184E+00  5.342742757099E+00
  5.406855670184E+00  5.471737938226E+00  5.537398793485E+00  5.603847579006E+00
  5.671093749955E+00  5.739146874954E+00  5.808016637453E+00  5.877712837103E+00
  5.948245391148E+00  6.019624335842E+00  6.091859827872E+00  6.164962145806E+00
  6.238941691556E+00  6.313808991855E+00  6.389574699757E+00  6.466249596154E+00
  6.543844591308E+00  6.622370726404E+00  6.701839175121E+00  6.782261245222E+00
  6.863648380165E+00  6.946012160727E+00  7.029364306655E+00  7.113716678335E+00
  7.199081278475E+00  7.285470253817E+00  7.372895896863E+00  7.461370647625E+00
  7.550907095397E+00  7.641517980541E+00  7.733216196308E+00  7.826014790664E+00
  7.919926968152E+00  8.014966091769E+00  8.111145684871E+00  8.208479433089E+00
  8.306981186286E+00  8.406664960521E+00  8.507544940048E+00  8.609635479328E+00
  8.712951105080E+00  8.817506518341E+00  8.923316596561E+00  9.030396395720E+00
  9.138761152469E+00  9.248426286298E+00  9.359407401734E+00  9.471720290555E+00
  9.585380934041E+00  9.700405505250E+00  9.816810371313E+00  9.934612095769E+00
  1.005382744092E+01  1.017447337021E+01  1.029656705065E+01  1.042012585526E+01
  1.054516736552E+01  1.067170937391E+01  1.079976988640E+01  1.092936712503E+01
  1.106051953053E+01  1.119324576490E+01  1.132756471408E+01  1.146349549065E+01
  1.160105743653E+01  1.174027012577E+01  1.188115336728E+01  1.202372720769E+01
  1.216801193418E+01  1.231402807739E+01  1.246179641432E+01  1.261133797129E+01
  1.276267402695E+01  1.291582611527E+01  1.307081602865E+01  1.322766582100E+01
  1.338639781085E+01  1.354703458458E+01  1.370959899960E+01  1.387411418759E+01
  1.404060355784E+01  1.420909080054E+01  1.437959989014E+01  1.455215508882E+01
  1.472678094989E+01  1.490350232129E+01  1.508234434914E+01  1.526333248133E+01
  1.544649247111E+01  1.563185038076E+01  1.581943258533E+01  1.600926577636E+01
  1.620137696567E+01  1.639579348926E+01  1.659254301113E+01  1.679165352727E+01
  1.699315336959E+01  1.719707121003E+01  1.740343606455E+01  1.761227729732E+01
  1.782362462489E+01  1.803750812039E+01  1.825395821783E+01  1.847300571645E+01
  1.869468178505E+01  1.891901796647E+01  1.914604618206E+01  1.937579873625E+01
  1.960830832108E+01  1.984360802094E+01  2.008173131719E+01  2.032271209299E+01
  2.056658463811E+01  2.081338365377E+01  2.106314425761E+01  2.131590198870E+01
  2.157169281257E+01  2.183055312632E+01  2.209251976383E+01  2.235763000100E+01
  2.262592156101E+01  2.289743261974E+01  2.317220181118E+01  2.345026823292E+01
  2.373167145171E+01  2.401645150913E+01  2.430464892724E+01  2.459630471437E+01
  2.489146037094E+01  2.519015789539E+01  2.549243979014E+01  2.579834906762E+01
  2.610792925643E+01  2.642122440751E+01  2.673827910040E+01  2.705913844960E+01
  2.738384811100E+01  2.771245428833E+01  2.804500373979E+01  2.838154378467E+01
  2.872212231008E+01  2.906678777780E+01  2.941558923114E+01  2.976857630191E+01
  3.012579921753E+01  3.048730880814E+01  3.085315651384E+01  3.122339439201E+01
  3.159807512471E+01  3.197725202621E+01  3.236097905052E+01  3.274931079913E+01
  3.314230252872E+01  3.354001015906E+01  3.394249028097E+01  3.434980016434E+01
  3.476199776632E+01  3.517914173951E+01  3.560129144039E+01  3.602850693767E+01
  3.646084902092E+01  3.689837920917E+01  3.734115975968E+01  3.778925367680E+01
  3.824272472092E+01  3.870163741757E+01  3.916605706658E+01  3.963604975138E+01
  4.011168234840E+01  4.059302253658E+01  4.108013880702E+01  4.157310047270E+01
  4.207197767837E+01  4.257684141052E+01  4.308776350744E+01  4.360481666953E+01
  4.412807446957E+01
</grid-data>
</grid>
<valence-charge total-charge="13" is-unscreening-charge="yes"
 rescaled-to-z-pseudo="no">
<radfunc>
<data npts="457">
  5.660156638843E-02  5.682773100447E-02  5.750442103157E-02  5.863540126480E-02
  6.021206779370E-02  6.229268347968E-02  6.495669790245E-02  6.802415230367E-02
  7.185893425055E-02  7.603628709387E-02  8.078383035204E-02  8.599090569732E-02
  9.234904730682E-02  9.906552812612E-02  1.058527131409E-01  1.137667118399E-01
  1.230075237446E-01  1.318929569539E-01  1.420284548087E-01  1.536046532554E-01
  1.668445054203E-01  1.788083706851E-01  1.921578260236E-01  2.070688090772E-01
  2.237419612901E-01  2.424063548190E-01  2.633237807057E-01  2.806689598902E-01
  2.995910238939E-01  3.202471519634E-01  3.428113397091E-01  3.674762048193E-01
  3.944549600257E-01  4.239835594828E-01  4.563230218948E-01  4.917619297565E-01
  5.306190986769E-01  5.732464035816E-01  6.039491056317E-01  6.366234706584E-01
  6.714020805614E-01  7.084260567193E-01  7.478454670840E-01  7.898197238966E-01
  8.345179653118E-01  8.821194129649E-01  9.328136960851E-01  9.868011311658E-01
  1.044292944412E+00  1.105511422209E+00  1.170689972663E+00  1.240073078887E+00
  1.313916122092E+00  1.392485049762E+00  1.476055861209E+00  1.564913879687E+00
  1.659352776968E+00  1.759673313020E+00  1.866181750101E+00  1.979187897408E+00
  2.099002739504E+00  2.225935599130E+00  2.360290783092E+00  2.502363658702E+00
  2.652436108163E+00  2.810771309609E+00  2.977607796560E+00  3.064280191255E+00
  3.153152752820E+00  3.244245249649E+00  3.337574507736E+00  3.433154130870E+00
  3.530994207788E+00  3.631101006392E+00  3.733476655240E+00  3.838118812614E+00
  3.945020323576E+00  4.054168865575E+00  4.165546583263E+00  4.279129713360E+00
  4.394888200557E+00  4.512785305616E+00  4.632777207004E+00  4.754812597628E+00
  4.878832278394E+00  5.004768750594E+00  5.132545809309E+00  5.262078140288E+00
  5.393270923003E+00  5.526019442845E+00  5.660208715692E+00  5.795713128351E+00
  5.932396098644E+00  6.070109759192E+00  6.208694669212E+00  6.347979558909E+00
  6.487781111276E+00  6.627903786398E+00  6.768139693510E+00  6.908268516295E+00
  7.048057497049E+00  7.187261485460E+00  7.325623057823E+00  7.462872712558E+00
  7.598729147831E+00  7.732899627023E+00  7.865080437588E+00  7.994957448600E+00
  8.122206771973E+00  8.246495531861E+00  8.367482746250E+00  8.484820324091E+00
  8.598154180569E+00  8.707125472215E+00  8.811371952616E+00  8.910529448285E+00
  9.004233453091E+00  9.092120838230E+00  9.173831673263E+00  9.249011152163E+00
  9.317311616622E+00  9.378394667100E+00  9.431933350258E+00  9.477614409549E+00
  9.515140583786E+00  9.544232936649E+00  9.564633198172E+00  9.576106097465E+00
  9.578441664215E+00  9.571457474940E+00  9.555000818613E+00  9.528950755119E+00
  9.493220039149E+00  9.447756881608E+00  9.392546520409E+00  9.327612572817E+00
  9.253018142142E+00  9.168866652799E+00  9.075302389413E+00  8.972510717877E+00
  8.860717969029E+00  8.740190968924E+00  8.611236203507E+00  8.474198609820E+00
  8.329459990692E+00  8.177437055045E+00  8.018579091484E+00  7.853365288610E+00
  7.682301721426E+00  7.505918029099E+00  7.324763815209E+00  7.139404807168E+00
  6.950418816682E+00  6.758391547799E+00  6.563912303025E+00  6.367569641195E+00
  6.169947042964E+00  5.971618641013E+00  5.773145072116E+00  5.575069507172E+00
  5.377913913101E+00  5.182175597363E+00  4.988324081571E+00  4.796798345055E+00
  4.608004472904E+00  4.422313736238E+00  4.240061125129E+00  4.061544347086E+00
  3.887023690663E+00  3.716723992988E+00  3.550838001645E+00  3.389527785234E+00
  3.232925278107E+00  3.081133745090E+00  2.934229353010E+00  2.792263749721E+00
  2.655267215457E+00  2.523250002959E+00  2.396203706784E+00  2.274102631602E+00
  2.156905161783E+00  2.044555118480E+00  1.936983096362E+00  1.834107774437E+00
  1.735837192818E+00  1.642069990619E+00  1.552696599868E+00  1.467600391203E+00
  1.386658767828E+00  1.309744204840E+00  1.236725231695E+00  1.167467356160E+00
  1.101833928658E+00  1.039686946447E+00  9.808877975276E-01  9.252979446481E-01
  8.727795501458E-01  8.231960427452E-01  7.764126277421E-01  7.322967422894E-01
  6.907184577445E-01  6.515508312449E-01  6.146702088515E-01  5.799564827396E-01
  5.472933050236E-01  5.165682608778E-01  4.876730036684E-01  4.605033548280E-01
  4.349593712098E-01  4.109453826265E-01  3.883700022422E-01  3.671461124345E-01
  3.471908285560E-01  3.284254432196E-01  3.107753532435E-01  2.941699715646E-01
  2.785426261983E-01  2.638304482141E-01  2.499742505713E-01  2.369183995251E-01
  2.246106801908E-01  2.130021577205E-01  2.020470354265E-01  1.917025110615E-01
  1.819286323526E-01  1.726881527695E-01  1.639463884065E-01  1.556710767511E-01
  1.478322380192E-01  1.404020396466E-01  1.333546644382E-01  1.266661828011E-01
  1.203144294087E-01  1.142788845774E-01  1.085405605715E-01  1.030818929936E-01
  9.788663736427E-02  9.293977094611E-02  8.822739982347E-02  8.373667120986E-02
  7.945569092139E-02  7.537344592386E-02  7.147973183594E-02  6.776508524883E-02
  6.422072070436E-02  6.083847215948E-02  5.761073875262E-02  5.453043467947E-02
  5.159094297894E-02  4.878607302669E-02  4.611002153166E-02  4.355733683125E-02
  4.112288628251E-02  3.880182655006E-02  3.658957659593E-02  3.448179318197E-02
  3.247434870272E-02  3.056331117337E-02  2.874492620652E-02  2.701560081967E-02
  2.537188892540E-02  2.381047836537E-02  2.232817935987E-02  2.092191425405E-02
  1.958870845238E-02  1.832568244192E-02  1.713004481432E-02  1.599908620421E-02
  1.493017406698E-02  1.392074823998E-02  1.296831719560E-02  1.207045495537E-02
  1.122479859252E-02  1.042904627001E-02  9.680955758909E-03  8.978343382222E-03
  8.319083328879E-03  7.701107282733E-03  7.122404311395E-03  6.581020960385E-03
  6.075061499379E-03  5.602688269379E-03  5.162122082477E-03  4.751642629559E-03
  4.369588855599E-03  4.014359267072E-03  3.684412141337E-03  3.378265613286E-03
  3.094497620163E-03  2.831745690855E-03  2.588706571145E-03  2.364135681213E-03
  2.156846405982E-03  1.965709222739E-03  1.789650673638E-03  1.627652193393E-03
  1.478748804531E-03  1.342027694130E-03  1.216626686997E-03  1.101732630855E-03
  9.965797092564E-04  9.004476977978E-04  8.126601787378E-04  7.325827284163E-04
  6.596210909718E-04  5.932193508164E-04  5.328581151754E-04  4.780527167953E-04
  4.283514456782E-04  3.833338174690E-04  3.426088849065E-04  3.058135975909E-04
  2.726112142267E-04  2.426897704893E-04  2.157606047462E-04  1.915569430465E-04
  1.698325440795E-04  1.503604041919E-04  1.329315220466E-04  1.173537220934E-04
  1.034505356942E-04  9.106013850723E-05  8.003434255226E-05  7.023764126747E-05
  6.154630579771E-05  5.384753072459E-05  4.703862744697E-05  4.102626343960E-05
  3.572574564942E-05  3.106034632879E-05  2.696066964703E-05  2.336405746337E-05
  2.021403268345E-05  1.745977865633E-05  1.505565309910E-05  1.296073506211E-05
  1.113840346964E-05  9.555945789634E-06  8.184195402935E-06  6.997196258469E-06
  5.971893416774E-06  5.087848101626E-06  4.326975898695E-06  3.673306762026E-06
  3.112765514210E-06  2.632971554546E-06  2.223056521582E-06  1.873498692088E-06
  1.575972937562E-06  1.323215101620E-06  1.108899706669E-06  9.275299456738E-07
  7.743389642493E-07  6.452014890503E-07  5.365549102630E-07  4.453289782019E-07
  3.688833262788E-07  3.049520844311E-07  2.515948981100E-07  2.071537177659E-07
  1.702147721395E-07  1.395751853013E-07  1.142137420677E-07  9.326534900316E-08
  7.599877854996E-08  6.179732184853E-08  5.014201145548E-08  4.059710843077E-08
  3.279757915848E-08  2.643831582870E-08  2.126488080070E-08  1.706557916871E-08
  1.366468585213E-08  1.091667353521E-08  8.701305896804E-09  6.919476915103E-09
  5.489691721833E-09  4.345097636241E-09  3.430985747237E-09  2.702693849117E-09
  2.123850783587E-09  1.664910405889E-09  1.301930577793E-09  1.015558891301E-09
  7.901923345664E-10  6.132829095609E-10  4.747653772509E-10  3.665869117876E-10
  2.823215557762E-10  2.168550433771E-10  1.661278504992E-10  1.269262899568E-10
  9.671313745391E-11  7.349069021730E-11  5.569035824814E-11  4.208389878626E-11
  3.171225428991E-11  2.382866637411E-11  1.785333306507E-11  1.333737241016E-11
  9.934263856762E-12  7.377300137073E-12  5.461765321685E-12  1.242257939109E-12
  8.935586838281E-13  6.403816646723E-13  4.572358526545E-13  3.252430994605E-13
  2.304745233544E-13  1.626915972002E-13  1.143970371622E-13  8.012199015909E-14
  5.589276121276E-14  3.883341804180E-14  2.687082240158E-14  1.851656385989E-14
  1.270639877047E-14  8.682513944992E-15  5.907550385919E-15  4.002082667771E-15
  2.699347624928E-15  1.812603890405E-15  1.211700355175E-15  8.063292680025E-16
  5.341101276474E-16  3.521489937425E-16  2.310867781249E-16  1.509218820709E-16
  9.809185772941E-17  6.344424013321E-17  4.083236080756E-17  2.614833719316E-17
  1.666037967047E-17  1.056089103228E-17  6.659848930465E-18  4.177816099515E-18
  2.606921982206E-18  1.617978852369E-18  9.987475398632E-19  6.131240099504E-19
  3.743018252962E-19  2.272205158220E-19  1.371499695420E-19  8.230698888465E-20
  4.910666284261E-20  2.912569905540E-20  1.717171483503E-20  1.006285269429E-20
  5.860937260107E-21  3.392497230087E-21  1.951398340139E-21  1.115355620589E-21
  6.334156339723E-22  0.000000000000E+00  0.000000000000E+00  0.000000000000E+00
  0.000000000000E+00
</data>
</radfunc>
</valence-charge>
<pseudocore-charge matching-radius="0.792286514063"
 number-of-continuous-derivatives="4">
<annotation model-charge-form="Teter function with specified parameters" />
<radfunc>
<data npts="290">
  4.771269275815E+01  4.770998269233E+01  4.770188128787E+01  4.768836500579E+01
  4.766957199427E+01  4.764485984026E+01  4.761336229373E+01  4.757729179584E+01
  4.753248952097E+01  4.748404568454E+01  4.742943546509E+01  4.737007100968E+01
  4.729831607235E+01  4.722336421364E+01  4.714847775963E+01  4.706220487288E+01
  4.696283875084E+01  4.686862996278E+01  4.676269771184E+01  4.664361331876E+01
  4.650978211928E+01  4.639091143532E+01  4.626046683639E+01  4.611735754503E+01
  4.596039756537E+01  4.578829898737E+01  4.559966518322E+01  4.544643346272E+01
  4.528236983116E+01  4.510675130307E+01  4.491881320429E+01  4.471774780972E+01
  4.450270312112E+01  4.427278182679E+01  4.402704049127E+01  4.376448903102E+01
  4.348409053974E+01  4.318476153624E+01  4.297413608489E+01  4.275425041258E+01
  4.252475031028E+01  4.228527334471E+01  4.203544925444E+01  4.177490042891E+01
  4.150324247886E+01  4.122008490665E+01  4.092503188576E+01  4.061768315905E+01
  4.029763506601E+01  3.996448170954E+01  3.961781627331E+01  3.925723250085E+01
  3.888232634826E+01  3.849269782202E+01  3.808795301400E+01  3.766770634520E+01
  3.723158302999E+01  3.677922177179E+01  3.631027770069E+01  3.582442556251E+01
  3.532136316756E+01  3.480081510582E+01  3.426253673307E+01  3.370631843045E+01
  3.313199013642E+01  3.253942614714E+01  3.192855017674E+01  3.161623617327E+01
  3.129934066437E+01  3.097787041390E+01  3.065183630925E+01  3.032125354499E+01
  2.998614180886E+01  2.964652546985E+01  2.930243376802E+01  2.895390100554E+01
  2.860096673876E+01  2.824367597050E+01  2.788207934230E+01  2.751623332605E+01
  2.714620041418E+01  2.677204930809E+01  2.639385510376E+01  2.601169947415E+01
  2.562567084734E+01  2.523586457961E+01  2.484238312267E+01  2.444533618403E+01
  2.404484087940E+01  2.364102187631E+01  2.323401152757E+01  2.282394999367E+01
  2.241098535269E+01  2.199527369663E+01  2.157697921281E+01  2.115627424897E+01
  2.073333936072E+01  2.030836333987E+01  1.988154322233E+01  1.945308427383E+01
  1.902319995233E+01  1.859211184521E+01  1.816004958003E+01  1.772725070715E+01
  1.729396055280E+01  1.686043204103E+01  1.642692548314E+01  1.599370833308E+01
  1.556105490764E+01  1.512924606987E+01  1.469856887478E+01  1.426931617604E+01
  1.384178619276E+01  1.341628203552E+01  1.299311119085E+01  1.257258496380E+01
  1.215501787813E+01  1.174072703405E+01  1.133003142370E+01  1.092325120465E+01
  1.052070693220E+01  1.012271875136E+01  9.729605549863E+00  9.341684073801E+00
  8.959268007985E+00  8.582667023302E+00  8.212185793949E+00  7.848122987724E+00
  7.490770233015E+00  7.140411066570E+00  6.797319866585E+00  6.461760776063E+00
  6.133986621905E+00  5.814237835571E+00  5.502741381631E+00  5.199709700914E+00
  4.905339675371E+00  4.619811622110E+00  4.343288324406E+00  4.075914107760E+00
  3.817813969312E+00  3.569092769061E+00  3.329834491488E+00  3.100101586145E+00
  2.879934395752E+00  2.669350680157E+00  2.468345244279E+00  2.276889677766E+00
  2.094932213638E+00  1.922397712563E+00  1.759187778722E+00  1.605181012328E+00
  1.460233402920E+00  1.324178866432E+00  1.196829927825E+00  1.077978549669E+00
  9.673971057291E-01  8.648394969023E-01  7.700424053255E-01  6.827266807253E-01
  6.025988513234E-01  5.293527498369E-01  4.626712433286E-01  4.022280539095E-01
  3.476896556050E-01  2.987172310980E-01  2.549686705914E-01  2.161005937318E-01
  1.817703744355E-01  1.516381475952E-01  1.253687760623E-01  1.026337560174E-01
  8.311303890569E-02  6.649674853275E-02  5.248677272245E-02  4.079821014117E-02
  3.116065449314E-02  2.331930029126E-02  1.703585678955E-02  1.208925940349E-02
  8.276171007110E-03  5.411268833936E-03  3.327316263089E-03  1.875022474518E-03
  9.226967273172E-04  3.557077661877E-04  7.576249830360E-05  2.150790390510E-08
  6.007208876695E-05  2.007821771074E-04  3.790607662896E-04  5.625519960231E-04
  7.282910611331E-04  8.613503239421E-04  9.535035052568E-04  1.001934560739E-03
  1.008015836632E-03  9.761773834769E-04  9.128859587540E-04  8.257483669790E-04
  7.227494921434E-04  6.116308181403E-04  4.994105714698E-04  3.920420320415E-04
  2.942022216608E-04  2.091992713226E-04  1.389834506130E-04  8.424425664285E-05
  4.457421711184E-05  1.867923562344E-05  4.615426471680E-06  3.343194844290E-08
  2.413119229685E-06  9.274199321414E-06  1.835153697031E-05  2.772753165399E-05
  3.591772456338E-05  4.190949204810E-05  4.515709300757E-05  4.553923634398E-05
  4.328755009413E-05  3.889574050127E-05  3.301976137273E-05  2.637897274252E-05
  1.966712279896E-05  1.348017237501E-05  8.265685637756E-06  4.295961572434E-06
  1.664525167004E-06  3.032779400436E-07  1.574050097746E-08  5.205719617285E-07
  1.499022086626E-06  2.640183580186E-06  3.678803772765E-06  4.421851370870E-06
  4.761818414035E-06  4.676635933011E-06  4.217850695868E-06  3.490128215865E-06
  2.626043093138E-06  1.760395211169E-06  1.007940859754E-06  4.475329376821E-07
  1.143839032176E-07  7.137827592959E-10  0.000000000000E+00  0.000000000000E+00
  0.000000000000E+00  0.000000000000E+00  0.000000000000E+00  0.000000000000E+00
  0.000000000000E+00  0.000000000000E+00  0.000000000000E+00  0.000000000000E+00
  0.000000000000E+00  0.000000000000E+00  0.000000000000E+00  0.000000000000E+00
  0.000000000000E+00  0.000000000000E+00  0.000000000000E+00  0.000000000000E+00
  0.000000000000E+00  0.000000000000E+00  0.000000000000E+00  0.000000000000E+00
  0.000000000000E+00  0.000000000000E+00  0.000000000000E+00  0.000000000000E+00
  0.000000000000E+00  0.000000000000E+00  0.000000000000E+00  0.000000000000E+00
  0.000000000000E+00  0.000000000000E+00  0.000000000000E+00  0.000000000000E+00
  0.000000000000E+00  0.000000000000E+00  0.000000000000E+00  0.000000000000E+00
  0.000000000000E+00  0.000000000000E+00  0.000000000000E+00  0.000000000000E+00
  0.000000000000E+00  0.000000000000E+00
</data>
</radfunc>
</pseudocore-charge>
<semilocal-potentials set="scalar_relativistic">
<slps n="4" l="s" rc="1.50879396696" eref="-2.14437111399">
<radfunc>
<data npts="290">
  6.319049097123E+01  6.313548617714E+01  6.297146966538E+01  6.269920098686E+01
  6.232346855903E+01  6.183433771625E+01  6.121890545338E+01  6.052490858938E+01
  5.967854453541E+01  5.878231813021E+01  5.779483349350E+01  5.674785552227E+01
  5.551771292118E+01  5.427230550908E+01  5.306649216877E+01  5.172276758450E+01
  5.023226885573E+01  4.887255463261E+01  4.740219294221E+01  4.581887400101E+01
  4.412165088128E+01  4.268223929504E+01  4.117146969671E+01  3.959130385543E+01
  3.794455270158E+01  3.623490602601E+01  3.446694213626E+01  3.310594732496E+01
  3.171781227953E+01  3.030540117575E+01  2.887181095291E+01  2.742034825495E+01
  2.595450232810E+01  2.447791430901E+01  2.299434346135E+01  2.150763102698E+01
  2.002166244531E+01  1.854032875561E+01  1.755725562660E+01  1.657908579852E+01
  1.560692767947E+01  1.464186629188E+01  1.368495890863E+01  1.273723096511E+01
  1.179967228163E+01  1.087323362618E+01  9.958823642088E+00  9.057306160548E+00
  8.169497912123E+00  7.296166646434E+00  6.438029663833E+00  5.595752757973E+00
  4.769949563418E+00  3.961181298128E+00  3.169956886672E+00  2.396733446583E+00
  1.641917117223E+00  9.058642080815E-01  1.888826414015E-01 -5.087663374510E-01
 -1.186866209481E+00 -1.845243019616E+00 -2.483763030678E+00 -3.102330221948E+00
 -3.700883659999E+00 -4.279394768683E+00 -4.837864524178E+00 -5.109591578259E+00
 -5.376320599823E+00 -5.638058746590E+00 -5.894814484190E+00 -6.146597496178E+00
 -6.393418594447E+00 -6.635289630209E+00 -6.872223405652E+00 -7.104233586446E+00
 -7.331334615197E+00 -7.553541626000E+00 -7.770870360196E+00 -7.983337083454E+00
 -8.190958504294E+00 -8.393751694153E+00 -8.591734009104E+00 -8.784923013317E+00
 -8.973336404384E+00 -9.156991940577E+00 -9.335907370148E+00 -9.510100362767E+00
 -9.679588443181E+00 -9.844388927200E+00 -1.000451886009E+01 -1.015999495750E+01
 -1.031083354897E+01 -1.045705052421E+01 -1.059866128219E+01 -1.073568068318E+01
 -1.086812300387E+01 -1.099600189581E+01 -1.111933034706E+01 -1.123812064755E+01
 -1.135238435805E+01 -1.146213228311E+01 -1.156737444811E+01 -1.166812008063E+01
 -1.176437759651E+01 -1.185615459070E+01 -1.194345783323E+01 -1.202629327076E+01
 -1.210466603377E+01 -1.217858044993E+01 -1.224804006392E+01 -1.231304766405E+01
 -1.237360531612E+01 -1.242971440484E+01 -1.248137568313E+01 -1.252858932992E+01
 -1.257135501642E+01 -1.260967198162E+01 -1.264353911709E+01 -1.267295506140E+01
 -1.269791830458E+01 -1.271842730274E+01 -1.273448060307E+01 -1.274607697945E+01
 -1.275321557879E+01 -1.275589607824E+01 -1.275411885342E+01 -1.274788515783E+01
 -1.273719731360E+01 -1.272205891389E+01 -1.270247503730E+01 -1.267845247475E+01
 -1.264999996967E+01 -1.261712847220E+01 -1.257985140891E+01 -1.253818496927E+01
 -1.249214841101E+01 -1.244176438649E+01 -1.238705929300E+01 -1.232806365003E+01
 -1.226481250733E+01 -1.219734588794E+01 -1.212570927073E+01 -1.204995411776E+01
 -1.197013845190E+01 -1.188632749070E+01 -1.179859434276E+01 -1.170702077292E+01
 -1.161169804296E+01 -1.151272783390E+01 -1.141022325621E+01 -1.130430995314E+01