<?xml version="1.0" encoding="UTF-8" ?>
<psml version="1.1" energy_unit="hartree" length_unit="bohr"
 uuid="da3b3ad0-1d64-11e8-769a-e2a8ddbd705f"
 xmlns="http://esl.cecam.org/PSML/ns/1.1">
<provenance creator="ONCVPSP-3.3.0+psml-3.3.0-73 (scalar-relativistic)"
 date="2018-03-01">
<annotation action="semilocal-pseudopotential-generation"
 action-cont="projectors-generation" />
<input-file name="oncvpsp-input">
<![CDATA[# atsym z nc nv iexc psfile
He 2 0 1 -116133 upf
# n l f
1 0 2.0
# lmax
1
# l rc ep ncon nbas qcut
0 1.25 0.0 4 8 9.4
1 1.13 0.05 4 7 9.4
# lloc lpopt rc5 dvloc0
4 5 1.0 0.0
# l nproj debl
0 2 1.0
1 1 1.0
# icmod fcfact rcfact
0 0.25 0.0
# epsh1 epsh2 depsh
-12.0 12.0 0.02
# rlmax drl
6.0 0.01
 0
]]>
</input-file>
</provenance>
<pseudo-atom-spec atomic-label="He" atomic-number="2" z-pseudo="2"
 flavor="Hamann&apos;s oncvpsp" relativity="scalar" spin-dft="no"
 core-corrections="no">
<annotation pseudo-energy="-2.82565000044" />
<exchange-correlation>
<annotation oncvpsp-xc-code="-116133" oncvpsp-xc-type="libxc-interface" />
<libxc-info number-of-functionals="2">
<functional name="Perdew, Burke &amp; Ernzerhof SOL (GGA)" type="exchange"
 id="116" />
<functional name="Perdew, Burke &amp; Ernzerhof SOL (GGA)" type="correlation"
 id="133" />
</libxc-info>
</exchange-correlation>
<valence-configuration total-valence-charge="2">
<shell n="1" l="s" occupation="2" />
</valence-configuration>
</pseudo-atom-spec>
<grid npts="457">
<annotation type="sampled from oncvpsp log grid"
 recipe="r(i:1..N) = r1*exp(a*(i-1)) + r=0; resampled"
 recipe-cont="r1: scale; a: step" scale="0.250000000000E-03"
 step="0.119285708653E-01" delta="0.500000000000E-02" rmax="44.2383759443" />
<grid-data>
  0.000000000000E+00  5.051602385059E-03  1.009017932864E-02  1.513687797741E-02
  2.015434136011E-02  2.528123861035E-02  3.059754257067E-02  3.573001596412E-02
  4.073979579344E-02  4.590119295367E-02  5.110325760530E-02  5.622023872390E-02
  6.184958435691E-02  6.723576846129E-02  7.309100954492E-02  7.851398768163E-02
  8.433932298996E-02  8.952259714325E-02  9.502442176619E-02  1.008643741373E-01
  1.070632347034E-01  1.122955148451E-01  1.177835013976E-01  1.235396909718E-01
  1.295771908995E-01  1.359097490801E-01  1.425517852856E-01  1.477454782566E-01
  1.531283968246E-01  1.587074351836E-01  1.644897387087E-01  1.704827131076E-01
  1.766940339056E-01  1.831316562762E-01  1.898038252291E-01  1.967190861709E-01
  2.038862958488E-01  2.113146336947E-01  2.164166142107E-01  2.216417769442E-01
  2.269930960067E-01  2.324736173167E-01  2.380864603332E-01  2.438348198315E-01
  2.497219677215E-01  2.557512549101E-01  2.619261132087E-01  2.682500572860E-01
  2.747266866691E-01  2.813596877920E-01  2.881528360941E-01  2.951099981688E-01
  3.022351339645E-01  3.095322990390E-01  3.170056468670E-01  3.246594312049E-01
  3.324980085119E-01  3.405258404295E-01  3.487474963208E-01  3.571676558720E-01
  3.657911117553E-01  3.746227723576E-01  3.836676645734E-01  3.929309366668E-01
  4.024178612017E-01  4.121338380425E-01  4.220843974282E-01  4.271494101974E-01
  4.322752031198E-01  4.374625055572E-01  4.427120556239E-01  4.480246002914E-01
  4.534008954949E-01  4.588417062408E-01  4.643478067157E-01  4.699199803963E-01
  4.755590201610E-01  4.812657284030E-01  4.870409171438E-01  4.928854081495E-01
  4.988000330473E-01  5.047856334439E-01  5.108430610452E-01  5.169731777778E-01
  5.231768559111E-01  5.294549781820E-01  5.358084379202E-01  5.422381391752E-01
  5.487449968454E-01  5.553299368075E-01  5.619938960492E-01  5.687378228018E-01
  5.755626766754E-01  5.824694287955E-01  5.894590619410E-01  5.965325706843E-01
  6.036909615326E-01  6.109352530709E-01  6.182664761078E-01  6.256856738211E-01
  6.331939019069E-01  6.407922287298E-01  6.484817354746E-01  6.562635163003E-01
  6.641386784959E-01  6.721083426378E-01  6.801736427495E-01  6.883357264625E-01
  6.965957551800E-01  7.049549042422E-01  7.134143630931E-01  7.219753354502E-01
  7.306390394756E-01  7.394067079493E-01  7.482795884447E-01  7.572589435061E-01
  7.663460508281E-01  7.755422034381E-01  7.848487098793E-01  7.942668943979E-01
  8.037980971306E-01  8.134436742962E-01  8.232049983878E-01  8.330834583684E-01
  8.430804598688E-01  8.531974253873E-01  8.634357944919E-01  8.737970240258E-01
  8.842825883141E-01  8.948939793739E-01  9.056327071264E-01  9.165002996119E-01
  9.274983032072E-01  9.386282828457E-01  9.498918222399E-01  9.612905241068E-01
  9.728260103960E-01  9.844999225208E-01  9.963139215910E-01  1.008269688650E+00
  1.020368924914E+00  1.032613352013E+00  1.045004712237E+00  1.057544768784E+00
  1.070235306009E+00  1.083078129681E+00  1.096075067238E+00  1.109227968044E+00
  1.122538703661E+00  1.136009168105E+00  1.149641278122E+00  1.163436973460E+00
  1.177398217141E+00  1.191526995747E+00  1.205825319696E+00  1.220295223532E+00
  1.234938766215E+00  1.249758031409E+00  1.264755127786E+00  1.279932189319E+00
  1.295291375591E+00  1.310834872098E+00  1.326564890564E+00  1.342483669250E+00
  1.358593473281E+00  1.374896594961E+00  1.391395354100E+00  1.408092098349E+00
  1.424989203530E+00  1.442089073972E+00  1.459394142860E+00  1.476906872574E+00
  1.494629755045E+00  1.512565312105E+00  1.530716095851E+00  1.549084689001E+00
  1.567673705269E+00  1.586485789732E+00  1.605523619209E+00  1.624789902639E+00
  1.644287381471E+00  1.664018830049E+00  1.683987056009E+00  1.704194900681E+00
  1.724645239490E+00  1.745340982363E+00  1.766285074152E+00  1.787480495042E+00
  1.808930260982E+00  1.830637424114E+00  1.852605073203E+00  1.874836334082E+00
  1.897334370091E+00  1.920102382532E+00  1.943143611122E+00  1.966461334456E+00
  1.990058870469E+00  2.013939576915E+00  2.038106851838E+00  2.062564134060E+00
  2.087314903669E+00  2.112362682513E+00  2.137711034703E+00  2.163363567119E+00
  2.189323929925E+00  2.215595817084E+00  2.242182966889E+00  2.269089162491E+00
  2.296318232441E+00  2.323874051231E+00  2.351760539845E+00  2.379981666323E+00
  2.408541446319E+00  2.437443943675E+00  2.466693270999E+00  2.496293590251E+00
  2.526249113334E+00  2.556564102694E+00  2.587242871927E+00  2.618289786390E+00
  2.649709263826E+00  2.681505774992E+00  2.713683844292E+00  2.746248050424E+00
  2.779203027029E+00  2.812553463353E+00  2.846304104913E+00  2.880459754172E+00
  2.915025271222E+00  2.950005574477E+00  2.985405641371E+00  3.021230509067E+00
  3.057485275176E+00  3.094175098478E+00  3.131305199660E+00  3.168880862056E+00
  3.206907432400E+00  3.245390321589E+00  3.284335005448E+00  3.323747025514E+00
  3.363631989820E+00  3.403995573698E+00  3.444843520582E+00  3.486181642829E+00
  3.528015822543E+00  3.570352012414E+00  3.613196236563E+00  3.656554591401E+00
  3.700433246498E+00  3.744838445456E+00  3.789776506802E+00  3.835253824883E+00
  3.881276870782E+00  3.927852193231E+00  3.974986419550E+00  4.022686256585E+00
  4.070958491664E+00  4.119809993564E+00  4.169247713486E+00  4.219278686048E+00
  4.269910030281E+00  4.321148950644E+00  4.373002738052E+00  4.425478770908E+00
  4.478584516159E+00  4.532327530353E+00  4.586715460717E+00  4.641756046246E+00
  4.697457118801E+00  4.753826604227E+00  4.810872523477E+00  4.868602993759E+00
  4.927026229684E+00  4.986150544440E+00  5.045984350974E+00  5.106536163185E+00
  5.167814597144E+00  5.229828372309E+00  5.292586312777E+00  5.356097348530E+00
  5.420370516713E+00  5.485414962913E+00  5.551239942468E+00  5.617854821778E+00
  5.685269079639E+00  5.753492308595E+00  5.822534216298E+00  5.892404626894E+00
  5.963113482416E+00  6.034670844205E+00  6.107086894336E+00  6.180371937068E+00
  6.254536400313E+00  6.329590837116E+00  6.405545927162E+00  6.482412478288E+00
  6.560201428027E+00  6.638923845163E+00  6.718590931305E+00  6.799214022481E+00
  6.880804590751E+00  6.963374245840E+00  7.046934736790E+00  7.131497953631E+00
  7.217075929075E+00  7.303680840224E+00  7.391325010307E+00  7.480020910430E+00
  7.569781161355E+00  7.660618535292E+00  7.752545957715E+00  7.845576509208E+00
  7.939723427318E+00  8.035000108446E+00  8.131420109747E+00  8.228997151064E+00
  8.327745116877E+00  8.427678058280E+00  8.528810194979E+00  8.631155917319E+00
  8.734729788327E+00  8.839546545787E+00  8.945621104336E+00  9.052968557588E+00
  9.161604180279E+00  9.271543430442E+00  9.382801951608E+00  9.495395575027E+00
  9.609340321927E+00  9.724652405790E+00  9.841348234660E+00  9.959444413476E+00
  1.007895774644E+01  1.019990523939E+01  1.032230410227E+01  1.044617175149E+01
  1.057152581251E+01  1.069838412226E+01  1.082676473173E+01  1.095668590851E+01
  1.108816613941E+01  1.122122413309E+01  1.135587882268E+01  1.149214936856E+01
  1.163005516098E+01  1.176961582291E+01  1.191085121278E+01  1.205378142734E+01
  1.219842680447E+01  1.234480792612E+01  1.249294562123E+01  1.264286096869E+01
  1.279457530031E+01  1.294811020392E+01  1.310348752636E+01  1.326072937668E+01
  1.341985812920E+01  1.358089642675E+01  1.374386718387E+01  1.390879359008E+01
  1.407569911316E+01  1.424460750252E+01  1.441554279255E+01  1.458852930606E+01
  1.476359165773E+01  1.494075475762E+01  1.512004381471E+01  1.530148434049E+01
  1.548510215258E+01  1.567092337841E+01  1.585897445895E+01  1.604928215246E+01
  1.624187353828E+01  1.643677602074E+01  1.663401733299E+01  1.683362554099E+01
  1.703562904748E+01  1.724005659605E+01  1.744693727520E+01  1.765630052251E+01
  1.786817612878E+01  1.808259424232E+01  1.829958537323E+01  1.851918039771E+01
  1.874141056248E+01  1.896630748923E+01  1.919390317910E+01  1.942423001725E+01
  1.965732077746E+01  1.989320862679E+01  2.013192713031E+01  2.037351025587E+01
  2.061799237894E+01  2.086540828749E+01  2.111579318694E+01  2.136918270518E+01
  2.162561289764E+01  2.188512025242E+01  2.214774169545E+01  2.241351459579E+01
  2.268247677094E+01  2.295466649219E+01  2.323012249010E+01  2.350888395998E+01
  2.379099056750E+01  2.407648245431E+01  2.436540024376E+01  2.465778504669E+01
  2.495367846725E+01  2.525312260885E+01  2.555616008016E+01  2.586283400112E+01
  2.617318800913E+01  2.648726626524E+01  2.680511346043E+01  2.712677482195E+01
  2.745229611982E+01  2.778172367325E+01  2.811510435733E+01  2.845248560962E+01
  2.879391543694E+01  2.913944242218E+01  2.948911573124E+01  2.984298512002E+01
  3.020110094146E+01  3.056351415276E+01  3.093027632259E+01  3.130143963846E+01
  3.167705691412E+01  3.205718159709E+01  3.244186777626E+01  3.283117018957E+01
  3.322514423185E+01  3.362384596263E+01  3.402733211418E+01  3.443566009955E+01
  3.484888802075E+01  3.526707467700E+01  3.569027957312E+01  3.611856292800E+01
  3.655198568313E+01  3.699060951133E+01  3.743449682547E+01  3.788371078737E+01
  3.833831531682E+01  3.879837510062E+01  3.926395560183E+01  3.973512306905E+01
  4.021194454588E+01  4.069448788043E+01  4.118282173500E+01  4.167701559582E+01
  4.217713978297E+01  4.268326546036E+01  4.319546464589E+01  4.371381022164E+01
  4.423837594430E+01
</grid-data>
</grid>
<valence-charge total-charge="2" is-unscreening-charge="yes"
 rescaled-to-z-pseudo="no">
<radfunc>
<data npts="457">
  1.738967196258E+01  1.738795618534E+01  1.738282692784E+01  1.737427128615E+01
  1.736237979738E+01  1.734675048123E+01  1.732684219951E+01  1.730406073787E+01
  1.727846485015E+01  1.724864195961E+01  1.721505995700E+01  1.717859888216E+01
  1.713458954480E+01  1.708869170221E+01  1.703463442847E+01  1.698074141365E+01
  1.691879893025E+01  1.686019946930E+01  1.679445659079E+01  1.672073921459E+01
  1.663813017600E+01  1.656496595321E+01  1.648490545770E+01  1.639734546499E+01
  1.630163971954E+01  1.619709796226E+01  1.608298546227E+01  1.599065330039E+01
  1.589215557954E+01  1.578713431616E+01  1.567521890475E+01  1.555602701651E+01
  1.542916577877E+01  1.529423327416E+01  1.515082040174E+01  1.499851314434E+01
  1.483689528875E+01  1.466555164625E+01  1.454571634711E+01  1.442125635525E+01
  1.429205457557E+01  1.415799705604E+01  1.401897375048E+01  1.387487934371E+01
  1.372561414033E+01  1.357108501800E+01  1.341120644537E+01  1.324590156418E+01
  1.307510333404E+01  1.289875573757E+01  1.271681504223E+01  1.252925111416E+01
  1.233604877763E+01  1.213720921221E+01  1.193275137809E+01  1.172271345792E+01
  1.150715430159E+01  1.128615485826E+01  1.105981957752E+01  1.082827775945E+01
  1.059168483090E+01  1.035022352301E+01  1.010410492301E+01  9.853569370914E+00
  9.598887170615E+00  9.340359082875E+00  9.078316567374E+00  8.946089370548E+00
  8.813121740391E+00  8.679463672642E+00  8.545167015299E+00  8.410285437845E+00
  8.274874394340E+00  8.138991080195E+00  8.002694382442E+00  7.866044823354E+00
  7.729104497254E+00  7.591937000445E+00  7.454607354131E+00  7.317181920324E+00
  7.179728310680E+00  7.042315288307E+00  6.905012662590E+00  6.767891177128E+00
  6.631022390924E+00  6.494478553005E+00  6.358332470703E+00  6.222657371874E+00
  6.087526761368E+00  5.953014272134E+00  5.819193511373E+00  5.686137902219E+00
  5.553920521450E+00  5.422613933825E+00  5.292290023634E+00  5.163019824134E+00
  5.034873345577E+00  4.907919402548E+00  4.782225441420E+00  4.657857368696E+00
  4.534879381101E+00  4.413353798252E+00  4.293340898795E+00  4.174898760862E+00
  4.058083107747E+00  3.942947159659E+00  3.829541492419E+00  3.717913903941E+00
  3.608109289314E+00  3.500169525256E+00  3.394133364681E+00  3.290036342082E+00
  3.187910690331E+00  3.087785269504E+00  2.989685508205E+00  2.893633357840E+00
  2.799647260185E+00  2.707742128530E+00  2.617929342588E+00  2.530216757282E+00
  2.444608725437E+00  2.361106134321E+00  2.279706455896E+00  2.200403810572E+00
  2.123189044165E+00  2.048049817716E+00  1.974970709732E+00  1.903933330387E+00
  1.834916447132E+00  1.767896121144E+00  1.702845854001E+00  1.639736743901E+00
  1.578537650767E+00  1.519215369505E+00  1.461734810669E+00  1.406059187783E+00
  1.352150210506E+00  1.299968282821E+00  1.249472705389E+00  1.200621881145E+00
  1.153373523183E+00  1.107684863899E+00  1.063512864260E+00  1.020814422008E+00
  9.795465774760E-01  9.396667155650E-01  9.011327623238E-01  8.639033744094E-01
  8.279381195716E-01  7.931976461615E-01  7.596438395369E-01  7.272399631274E-01
  6.959507818471E-01  6.657426655104E-01  6.365836699286E-01  6.084435934559E-01
  5.812940069243E-01  5.551082551613E-01  5.298614286361E-01  5.055301980494E-01
  4.820922037299E-01  4.595252043010E-01  4.378070955594E-01  4.169159171048E-01
  3.968298672306E-01  3.775273173441E-01  3.589868259059E-01  3.411871518789E-01
  3.241072676800E-01  3.077263716272E-01  2.920238998761E-01  2.769795378413E-01
  2.625732310991E-01  2.487851957683E-01  2.355959283669E-01  2.229862151432E-01
  2.109371408817E-01  1.994300971823E-01  1.884467902142E-01  1.779692479447E-01
  1.679798268454E-01  1.584612180761E-01  1.493964531495E-01  1.407689090775E-01
  1.325623130026E-01  1.247607463171E-01  1.173486482703E-01  1.103108190705E-01
  1.036324224803E-01  9.729898791253E-02  9.129641202674E-02  8.561095983264E-02
  8.022926530320E-02  7.513833150262E-02  7.032553023449E-02  6.577860121597E-02
  6.148565078492E-02  5.743515014753E-02  5.361593317530E-02  5.001719376081E-02
  4.662848274344E-02  4.343970441692E-02  4.044111263193E-02  3.762330650853E-02
  3.497722577382E-02  3.249414574216E-02  3.016567195596E-02  2.798373450627E-02
  2.594058205373E-02  2.402877557092E-02  2.224118182842E-02  2.057096664721E-02
  1.901158794094E-02  1.755678857171E-02  1.620058904350E-02  1.493728005724E-02
  1.376141495170E-02  1.266780205395E-02  1.165149696282E-02  1.070779478824E-02
  9.832222368804E-03  9.020530488797E-03  8.268686115277E-03  7.572864674659E-03
  6.929442387112E-03  6.334988675903E-03  5.786258667591E-03  5.280185797629E-03
  4.813874534654E-03  4.384593235397E-03  3.989767140809E-03  3.626971522722E-03
  3.293924989092E-03  2.988482954623E-03  2.708631282455E-03  2.452480101476E-03
  2.218257802776E-03  2.004305217876E-03  1.809069980418E-03  1.631101072291E-03
  1.469043554413E-03  1.321633481786E-03  1.187693001882E-03  1.066125634932E-03
  9.559117342945E-04  8.561041246744E-04  7.658239157160E-04  6.842564881830E-04
  6.106476497452E-04  5.442999571953E-04  4.845692017599E-04  4.308610540353E-04
  3.826278649590E-04  3.393656191288E-04  3.006110366886E-04  2.659388199235E-04
  2.349590406334E-04  2.073146642892E-04  1.826792069192E-04  1.607545206194E-04
  1.412687035352E-04  1.239741301236E-04  1.086455974699E-04  9.507858340864E-05
  8.308761218070E-05  7.250472335034E-05  6.317803970586E-05  5.497042987899E-05
  4.775826143881E-05  4.143024024756E-05  3.588633190769E-05  3.103676118259E-05
  2.680108533636E-05  2.310733741160E-05  1.989123554693E-05  1.709545452820E-05
  1.466895586775E-05  1.256637281433E-05  1.074744681091E-05  9.176512038880E-06
  7.822024812911E-06  6.656134720487E-06  5.654294533770E-06  4.794906056528E-06
  4.058999205815E-06  3.429941765388E-06  2.893177384836E-06  2.435989534371E-06
  2.047289259409E-06  1.717424710889E-06  1.438010556071E-06  1.201775499933E-06
  1.002426268696E-06  8.345265241634E-07  6.933892900820E-07  5.749815794722E-07
  4.758400145092E-07  3.929963280881E-07  3.239117284832E-07  2.664191955442E-07
  2.186728586628E-07  1.791036833398E-07  1.463807646900E-07  1.193775927470E-07
  9.714271612885E-08  7.887428765889E-08  6.389802810234E-08  5.164819246090E-08
  4.165116749470E-08  3.351136951760E-08  2.689914826700E-08  2.154043600576E-08
  1.720791119476E-08  1.371347330031E-08  1.090184978830E-08  8.645178315067E-09
  6.838426757708E-09  5.395531226740E-09  4.246147758173E-09  3.332927164590E-09
  2.609234701778E-09  2.037246933481E-09  1.586367596699E-09  1.231912517936E-09
  9.540208308156E-10  7.367560119035E-10  5.673656886880E-10  4.356738770026E-10
  3.335833611882E-10  2.546694173219E-10  1.938490683883E-10  1.471126136031E-10
  1.113063487317E-10  8.395724047933E-11  6.313188045669E-11  4.732336222368E-11
  3.536083311409E-11  2.633740130431E-11  1.955285439490E-11  1.446829165637E-11
  1.067030815937E-11  7.842810695027E-12  5.744920778958E-12  4.193675514416E-12
  3.050612695495E-12  2.211284163286E-12  1.597163660898E-12  1.149431329309E-12
  8.241884461008E-13  5.887905133063E-13  4.190506808090E-13  2.971147496713E-13
  0.000000000000E+00  0.000000000000E+00  0.000000000000E+00  0.000000000000E+00
  0.000000000000E+00  0.000000000000E+00  0.000000000000E+00  0.000000000000E+00
  0.000000000000E+00  0.000000000000E+00  0.000000000000E+00  0.000000000000E+00
  0.000000000000E+00  0.000000000000E+00  0.000000000000E+00  0.000000000000E+00
  0.000000000000E+00  0.000000000000E+00  0.000000000000E+00  0.000000000000E+00
  0.000000000000E+00  0.000000000000E+00  0.000000000000E+00  0.000000000000E+00
  0.000000000000E+00  0.000000000000E+00  0.000000000000E+00  0.000000000000E+00
  0.000000000000E+00  0.000000000000E+00  0.000000000000E+00  0.000000000000E+00
  0.000000000000E+00  0.000000000000E+00  0.000000000000E+00  0.000000000000E+00
  0.000000000000E+00  0.000000000000E+00  0.000000000000E+00  0.000000000000E+00
  0.000000000000E+00  0.000000000000E+00  0.000000000000E+00  0.000000000000E+00
  0.000000000000E+00  0.000000000000E+00  0.000000000000E+00  0.000000000000E+00
  0.000000000000E+00  0.000000000000E+00  0.000000000000E+00  0.000000000000E+00
  0.000000000000E+00  0.000000000000E+00  0.000000000000E+00  0.000000000000E+00
  0.000000000000E+00  0.000000000000E+00  0.000000000000E+00  0.000000000000E+00
  0.000000000000E+00  0.000000000000E+00  0.000000000000E+00  0.000000000000E+00
  0.000000000000E+00  0.000000000000E+00  0.000000000000E+00  0.000000000000E+00
  0.000000000000E+00  0.000000000000E+00  0.000000000000E+00  0.000000000000E+00
  0.000000000000E+00  0.000000000000E+00  0.000000000000E+00  0.000000000000E+00
  0.000000000000E+00  0.000000000000E+00  0.000000000000E+00  0.000000000000E+00
  0.000000000000E+00  0.000000000000E+00  0.000000000000E+00  0.000000000000E+00
  0.000000000000E+00  0.000000000000E+00  0.000000000000E+00  0.000000000000E+00
  0.000000000000E+00  0.000000000000E+00  0.000000000000E+00  0.000000000000E+00
  0.000000000000E+00  0.000000000000E+00  0.000000000000E+00  0.000000000000E+00
  0.000000000000E+00  0.000000000000E+00  0.000000000000E+00  0.000000000000E+00
  0.000000000000E+00  0.000000000000E+00  0.000000000000E+00  0.000000000000E+00
  0.000000000000E+00
</data>
</radfunc>
</valence-charge>
<semilocal-potentials set="scalar_relativistic">
<slps n="1" l="s" rc="1.26475512779" eref="-0.569580799269">
<radfunc>
<data npts="290">
 -8.313224284802E+00 -8.312827736907E+00 -8.311641843037E+00 -8.309663119637E+00
 -8.306911601979E+00 -8.303292922195E+00 -8.298679762880E+00 -8.293395640312E+00
 -8.287452089695E+00 -8.280518122150E+00 -8.272698661080E+00 -8.264194983932E+00
 -8.253911572594E+00 -8.243164289690E+00 -8.230476644353E+00 -8.217795268845E+00
 -8.203179683830E+00 -8.189313097540E+00 -8.173709698409E+00 -8.156154714691E+00
 -8.136407542477E+00 -8.118851470527E+00 -8.099568155956E+00 -8.078390922158E+00
 -8.055137676994E+00 -8.029609627047E+00 -8.001589915939E+00 -7.978798573698E+00
 -7.954365762940E+00 -7.928177083095E+00 -7.900110748476E+00 -7.870037207785E+00
 -7.837818762042E+00 -7.803309185463E+00 -7.766353354988E+00 -7.726786895660E+00
 -7.684435850848E+00 -7.639116388442E+00 -7.607158936357E+00 -7.573736194176E+00
 -7.538786107215E+00 -7.502244565460E+00 -7.464045408789E+00 -7.424120444591E+00
 -7.382399479834E+00 -7.338810369869E+00 -7.293279086533E+00 -7.245729808440E+00
 -7.196085036661E+00 -7.144265739335E+00 -7.090191529171E+00 -7.033780878150E+00
 -6.974951374181E+00 -6.913620024882E+00 -6.849703614089E+00 -6.783119117129E+00
 -6.713784181303E+00 -6.641617678397E+00 -6.566540336406E+00 -6.488475457880E+00
 -6.407349732490E+00 -6.323094151448E+00 -6.235645031263E+00 -6.144945154004E+00
 -6.050945030592E+00 -5.953604292782E+00 -5.852893218137E+00 -5.801267833074E+00
 -5.748794390638E+00 -5.695472931463E+00 -5.641304497254E+00 -5.586291194155E+00
 -5.530436258067E+00 -5.473744121809E+00 -5.416220484033E+00 -5.357872379758E+00
 -5.298708252374E+00 -5.238738026957E+00 -5.177973184682E+00 -5.116426838129E+00
 -5.054113807213E+00 -4.991050695481E+00 -4.927255966438E+00 -4.862750019589E+00
 -4.797555265803E+00 -4.731696201595E+00 -4.665199481894E+00 -4.598093990810E+00
 -4.530410909887E+00 -4.462183783316E+00 -4.393448579499E+00 -4.324243748377E+00
 -4.254610273855E+00 -4.184591720660E+00 -4.114234274914E+00 -4.043586777685E+00
 -3.972700750749E+00 -3.901630413773E+00 -3.830432692100E+00 -3.759167214299E+00
 -3.687896298607E+00 -3.616684927404E+00 -3.545600708782E+00 -3.474713824323E+00
 -3.404096962106E+00 -3.333825233988E+00 -3.263976076149E+00 -3.194629131866E+00
 -3.125866115445E+00 -3.057770656159E+00 -2.990428121043E+00 -2.923925415242E+00
 -2.858350758599E+00 -2.793793437027E+00 -2.730343527108E+00 -2.668091592245E+00
 -2.607128348546E+00 -2.547544298482E+00 -2.489429330213E+00 -2.432872280336E+00
 -2.377960457676E+00 -2.324779125661E+00 -2.273410940741E+00 -2.223935344345E+00
 -2.176427905955E+00 -2.130959615069E+00 -2.087596120207E+00 -2.046396913603E+00
 -2.007414460978E+00 -1.970693276756E+00 -1.936268946354E+00 -1.904167098716E+00
 -1.874402334194E+00 -1.846977115154E+00 -1.821880629311E+00 -1.799087638860E+00
 -1.778557331845E+00 -1.760232195994E+00 -1.744036939232E+00 -1.729877485402E+00
 -1.717640078078E+00 -1.707190529754E+00 -1.698373658112E+00 -1.691012955173E+00
 -1.684910538709E+00 -1.679847438319E+00 -1.675584270945E+00 -1.671862361976E+00
 -1.668405368403E+00 -1.664921459643E+00 -1.661106109413E+00 -1.656645548482E+00
 -1.651220923017E+00 -1.644513196543E+00 -1.636208825105E+00 -1.626006192413E+00
 -1.613623232669E+00 -1.598805759574E+00 -1.581329260900E+00 -1.562591209298E+00
 -1.544064816051E+00 -1.525755298691E+00 -1.507663215935E+00 -1.489785635253E+00
 -1.472120049415E+00 -1.454663941870E+00 -1.437414828428E+00 -1.420370254348E+00
 -1.403527793994E+00 -1.386885050487E+00 -1.370439655366E+00 -1.354189268250E+00
 -1.338131576509E+00 -1.322264294934E+00 -1.306585165414E+00 -1.291091956615E+00
 -1.275782463667E+00 -1.260654507850E+00 -1.245705936284E+00 -1.230934621632E+00
 -1.216338461789E+00 -1.201915379596E+00 -1.187663322537E+00 -1.173580262458E+00
 -1.159664195273E+00 -1.145913140685E+00 -1.132325141905E+00 -1.118898265376E+00
 -1.105630600497E+00 -1.092520259355E+00 -1.079565376455E+00 -1.066764108456E+00
 -1.054114633907E+00 -1.041615152987E+00 -1.029263887251E+00 -1.017059079372E+00
 -1.004998992890E+00 -9.930819119611E-01 -9.813061411130E-01 -9.696700049976E-01
 -9.581718481504E-01 -9.468100347501E-01 -9.355829483819E-01 -9.244889918026E-01
 -9.135265867091E-01 -9.026941735089E-01 -8.919902110934E-01 -8.814131766148E-01
 -8.709615652645E-01 -8.606338900554E-01 -8.504286816065E-01 -8.403444879309E-01
 -8.303798742263E-01 -8.205334226688E-01 -8.108037322099E-01 -8.011894183757E-01
 -7.916891130698E-01 -7.823014643793E-01 -7.730251363829E-01 -7.638588089626E-01
 -7.548011776180E-01 -7.458509532833E-01 -7.370068621468E-01 -7.282676454736E-01
 -7.196320594298E-01 -7.110988749100E-01 -7.026668773664E-01 -6.943348666404E-01
 -6.861016567961E-01 -6.779660759559E-01 -6.699269661376E-01 -6.619831830937E-01
 -6.541335961519E-01 -6.463770880577E-01 -6.387125548178E-01 -6.311389055459E-01
 -6.236550623092E-01 -6.162599599763E-01 -6.089525460675E-01 -6.017317806047E-01
 -5.945966359645E-01 -5.875460967315E-01 -5.805791595535E-01 -5.736948329976E-01
 -5.668921374088E-01 -5.601701047687E-01 -5.535277785567E-01 -5.469642136122E-01
 -5.404784759987E-01 -5.340696428688E-01 -5.277368023314E-01 -5.214790533204E-01
 -5.152955054643E-01 -5.091852789584E-01 -5.031475044377E-01 -4.971813228522E-01
 -4.912858853425E-01 -4.854603531187E-01 -4.797038973392E-01 -4.740156989921E-01
 -4.683949487779E-01 -4.628408469930E-01 -4.573526034159E-01 -4.519294371937E-01
 -4.465705767307E-01 -4.412752595784E-01 -4.360427323264E-01 -4.308722504951E-01
 -4.257630784297E-01 -4.207144891953E-01 -4.157257644734E-01 -4.107961944599E-01
 -4.059250777639E-01 -4.011117213080E-01 -3.963554402301E-01 -3.916555577854E-01
 -3.870114052511E-01 -3.824223218305E-01 -3.778876545598E-01 -3.734067582152E-01
 -3.689789952210E-01 -3.646037355593E-01 -3.602803566805E-01 -3.560082434147E-01
 -3.517867878845E-01 -3.476153894187E-01 -3.434934544666E-01 -3.394203965144E-01
 -3.353956360011E-01 -3.314186002367E-01
</data>
</radfunc>
</slps>
<slps n="2" l="p" rc="1.13600916810" eref="0.500000043842E-01">
<radfunc>
<data npts="290">
 -6.451737292078E+00 -6.451306206573E+00 -6.450017386075E+00 -6.447868004136E+00
 -6.444881411077E+00 -6.440957522301E+00 -6.435961779250E+00 -6.430248368558E+00
 -6.423833344193E+00 -6.416364541978E+00 -6.407961541388E+00 -6.398846776562E+00
 -6.387857004792E+00 -6.376409528189E+00 -6.362945097946E+00 -6.349540995197E+00
 -6.334158685664E+00 -6.319629903681E+00 -6.303356904882E+00 -6.285143628783E+00
 -6.264775443368E+00 -6.246772748212E+00 -6.227112454206E+00 -6.205657180104E+00
 -6.182261202468E+00 -6.156770573660E+00 -6.129023396548E+00 -6.106630521993E+00
 -6.082799188208E+00 -6.057453436236E+00 -6.030515621924E+00 -6.001906730936E+00
 -5.971546750601E+00 -5.939355101511E+00 -5.905251130707E+00 -5.869154666891E+00
 -5.830986636203E+00 -5.790669734661E+00 -5.762560913677E+00 -5.733442326992E+00
 -5.703293324799E+00 -5.672094107283E+00 -5.639825828796E+00 -5.606470700181E+00
 -5.572012087461E+00 -5.536434604804E+00 -5.499724199429E+00 -5.461868225862E+00
 -5.422855506687E+00 -5.382676376731E+00 -5.341322707402E+00 -5.298787907804E+00
 -5.255066899160E+00 -5.210156059151E+00 -5.164053132942E+00 -5.116757108042E+00
 -5.068268050669E+00 -5.018586902141E+00 -4.967715234904E+00 -4.915654969266E+00
 -4.862408053773E+00 -4.807976114455E+00 -4.752360080946E+00 -4.695559800796E+00
 -4.637573657092E+00 -4.578398208872E+00 -4.518027878581E+00 -4.487392245247E+00
 -4.456454716037E+00 -4.425213905874E+00 -4.393668273752E+00 -4.361816127810E+00
 -4.329655633860E+00 -4.297184827755E+00 -4.264401632020E+00 -4.231303877153E+00
 -4.197889328031E+00 -4.164155715849E+00 -4.130100776004E+00 -4.095722292350E+00
 -4.061018148195E+00 -4.025986384428E+00 -3.990625265084E+00 -3.954933350636E+00
 -3.918909579229E+00 -3.882553356011E+00 -3.845864650616E+00 -3.808844102759E+00
 -3.771493135790E+00 -3.733814077907E+00 -3.695810290590E+00 -3.657486303642E+00
 -3.618847956028E+00 -3.579902541501E+00 -3.540658957792E+00 -3.501127857872E+00
 -3.461321801570E+00 -3.421255405526E+00 -3.380945489224E+00 -3.340411214512E+00
 -3.299674215775E+00 -3.258758717616E+00 -3.217691636642E+00 -3.176502663693E+00
 -3.135224322627E+00 -3.093892001589E+00 -3.052543952561E+00 -3.011221254898E+00
 -2.969967738566E+00 -2.928829862899E+00 -2.887856546848E+00 -2.847098947052E+00
 -2.806610180468E+00 -2.766444988918E+00 -2.726659343630E+00 -2.687309988810E+00
 -2.648453924333E+00 -2.610147828961E+00 -2.572447426923E+00 -2.535406802327E+00
 -2.499077667681E+00 -2.463508594691E+00 -2.428744217583E+00 -2.394824421273E+00
 -2.361783528856E+00 -2.329649504988E+00 -2.298443193729E+00 -2.268177611250E+00
 -2.238857315355E+00 -2.210477874991E+00 -2.183025463680E+00 -2.156476600994E+00
 -2.130798065774E+00 -2.105947003571E+00 -2.081871248770E+00 -2.058509878892E+00
 -2.035794014624E+00 -2.013647874208E+00 -1.991990084783E+00 -1.970735246332E+00
 -1.949795735897E+00 -1.929083730925E+00 -1.908513421250E+00 -1.888003369317E+00
 -1.867478968087E+00 -1.846874936073E+00 -1.826137779596E+00 -1.805228144050E+00
 -1.784122969139E+00 -1.762817358493E+00 -1.741528736242E+00 -1.720518848921E+00
 -1.699779604963E+00 -1.679318100263E+00 -1.659140598857E+00 -1.639252113285E+00
 -1.619656368727E+00 -1.600355698756E+00 -1.581343685392E+00 -1.562591209298E+00
 -1.544064816051E+00 -1.525755298691E+00 -1.507663215935E+00 -1.489785635253E+00
 -1.472120049415E+00 -1.454663941870E+00 -1.437414828428E+00 -1.420370254348E+00