<?xml version="1.0" encoding="UTF-8" ?>
<psml version="1.1" energy_unit="hartree" length_unit="bohr"
 uuid="04d488a0-1d65-11e8-4cfe-103fffb43dbe"
 xmlns="http://esl.cecam.org/PSML/ns/1.1">
<provenance creator="ONCVPSP-3.3.0+psml-3.3.0-73 (scalar-relativistic)"
 date="2018-03-01">
<annotation action="semilocal-pseudopotential-generation"
 action-cont="projectors-generation" />
<input-file name="oncvpsp-input">
<![CDATA[# atsym z nc nv iexc psfile
Ne 10 1 2 -116133 upf
# n l f
1 0 2.0
2 0 2.0
2 1 6.0
# lmax
1
# l rc ep ncon nbas qcut
0 1.3 0.0 4 7 9.0
1 1.5 0.0 4 7 8.8
# lloc lpopt rc5 dvloc0
4 5 1.3 0.0
# l nproj debl
0 2 1.5
1 2 1.5
# icmod fcfact
0 0.05
# epsh1 epsh2 depsh
-12.0 12.0 0.02
# rlmax drl
4.0 0.01
 0
]]>
</input-file>
</provenance>
<pseudo-atom-spec atomic-label="Ne" atomic-number="10" z-pseudo="8"
 flavor="Hamann&apos;s oncvpsp" relativity="scalar" spin-dft="no"
 core-corrections="no">
<annotation pseudo-energy="-33.8462038296" />
<exchange-correlation>
<annotation oncvpsp-xc-code="-116133" oncvpsp-xc-type="libxc-interface" />
<libxc-info number-of-functionals="2">
<functional name="Perdew, Burke &amp; Ernzerhof SOL (GGA)" type="exchange"
 id="116" />
<functional name="Perdew, Burke &amp; Ernzerhof SOL (GGA)" type="correlation"
 id="133" />
</libxc-info>
</exchange-correlation>
<valence-configuration total-valence-charge="8">
<shell n="2" l="s" occupation="2" />
<shell n="2" l="p" occupation="6" />
</valence-configuration>
</pseudo-atom-spec>
<grid npts="457">
<annotation type="sampled from oncvpsp log grid"
 recipe="r(i:1..N) = r1*exp(a*(i-1)) + r=0; resampled"
 recipe-cont="r1: scale; a: step" scale="0.500000000000E-04"
 step="0.119285708653E-01" delta="0.500000000000E-02" rmax="44.2790565342" />
<grid-data>
  0.000000000000E+00  5.056247722070E-03  1.009945802476E-02  1.515079750118E-02
  2.017287482746E-02  2.530448665413E-02  3.062567936492E-02  3.576287246250E-02
  4.077725916977E-02  4.594340263175E-02  5.115025098203E-02  5.627193755841E-02
  6.190645980780E-02  6.729759692282E-02  7.315822235107E-02  7.858618733336E-02
  8.441687948565E-02  8.960492005827E-02  9.511180403221E-02  1.009571266888E-01
  1.071616875840E-01  1.123987792098E-01  1.178918123882E-01  1.236532952216E-01
  1.296963470949E-01  1.360347285499E-01  1.426828726186E-01  1.478813415899E-01
  1.532692101656E-01  1.588533788796E-01  1.646409996776E-01  1.706394850775E-01
  1.768565176628E-01  1.833000599224E-01  1.899783644480E-01  1.968999845042E-01
  2.040737849828E-01  2.115089537568E-01  2.166156259363E-01  2.218455936089E-01
  2.272018336210E-01  2.326873946919E-01  2.383053991494E-01  2.440590447064E-01
  2.499516062818E-01  2.559864378639E-01  2.621669744197E-01  2.684967338501E-01
  2.749793189921E-01  2.816184196699E-01  2.884178147944E-01  2.953813745148E-01
  3.025130624211E-01  3.098169378002E-01  3.172971579464E-01  3.249579805279E-01
  3.328037660097E-01  3.408389801363E-01  3.490681964727E-01  3.574960990083E-01
  3.661274848228E-01  3.749672668164E-01  3.840204765064E-01  3.932922668911E-01
  4.027879153830E-01  4.125128268120E-01  4.224725365025E-01  4.275422069405E-01
  4.326727134238E-01  4.378647859849E-01  4.431191634167E-01  4.484365933777E-01
  4.538178324983E-01  4.592636464882E-01  4.647748102461E-01  4.703521079691E-01
  4.759963332647E-01  4.817082892639E-01  4.874887887350E-01  4.933386541998E-01
  4.992587180502E-01  5.052498226668E-01  5.113128205389E-01  5.174485743853E-01
  5.236579572779E-01  5.299418527653E-01  5.363011549985E-01  5.427367688584E-01
  5.492496100847E-01  5.558406054058E-01  5.625106926706E-01  5.692608209827E-01
  5.760919508345E-01  5.830050542445E-01  5.900011148954E-01  5.970811282742E-01
  6.042461018134E-01  6.114970550352E-01  6.188350196956E-01  6.262610399320E-01
  6.337761724112E-01  6.413814864801E-01  6.490780643179E-01  6.568670010897E-01
  6.647494051028E-01  6.727263979640E-01  6.807991147396E-01  6.889687041164E-01
  6.972363285658E-01  7.056031645086E-01  7.140704024827E-01  7.226392473125E-01
  7.313109182803E-01  7.400866492996E-01  7.489676890912E-01  7.579553013603E-01
  7.670507649766E-01  7.762553741564E-01  7.855704386462E-01  7.949972839100E-01
  8.045372513169E-01  8.141916983327E-01  8.239619987127E-01  8.338495426973E-01
  8.438557372096E-01  8.539820060561E-01  8.642297901288E-01  8.746005476104E-01
  8.850957541817E-01  8.957169032319E-01  9.064655060706E-01  9.173430921435E-01
  9.283512092492E-01  9.394914237602E-01  9.507653208453E-01  9.621745046955E-01
  9.737205987518E-01  9.854052459368E-01  9.972301088881E-01  1.009196870195E+00
  1.021307232637E+00  1.033562919429E+00  1.045965674462E+00  1.058517262555E+00
  1.071219469706E+00  1.084074103343E+00  1.097082992583E+00  1.110247988494E+00
  1.123570964356E+00  1.137053815928E+00  1.150698461719E+00  1.164506843260E+00
  1.178480925379E+00  1.192622696483E+00  1.206934168841E+00  1.221417378867E+00
  1.236074387414E+00  1.250907280063E+00  1.265918167423E+00  1.281109185432E+00
  1.296482495658E+00  1.312040285605E+00  1.327784769033E+00  1.343718186261E+00
  1.359842804496E+00  1.376160918150E+00  1.392674849168E+00  1.409386947358E+00
  1.426299590726E+00  1.443415185815E+00  1.460736168045E+00  1.478265002061E+00
  1.496004182086E+00  1.513956232271E+00  1.532123707058E+00  1.550509191543E+00
  1.569115301842E+00  1.587944685464E+00  1.607000021689E+00  1.626284021949E+00
  1.645799430213E+00  1.665549023375E+00  1.685535611656E+00  1.705762038996E+00
  1.726231183464E+00  1.746945957665E+00  1.767909309157E+00  1.789124220867E+00
  1.810593711518E+00  1.832320836056E+00  1.854308686088E+00  1.876560390322E+00
  1.899079115005E+00  1.921868064385E+00  1.944930481158E+00  1.968269646932E+00
  1.991888882695E+00  2.015791549288E+00  2.039981047879E+00  2.064460820454E+00
  2.089234350299E+00  2.114305162503E+00  2.139676824453E+00  2.165352946346E+00
  2.191337181702E+00  2.217633227883E+00  2.244244826617E+00  2.271175764537E+00
  2.298429873711E+00  2.326011032196E+00  2.353923164582E+00  2.382170242557E+00
  2.410756285468E+00  2.439685360893E+00  2.468961585224E+00  2.498589124247E+00
  2.528572193738E+00  2.558915060062E+00  2.589622040783E+00  2.620697505273E+00
  2.652145875336E+00  2.683971625840E+00  2.716179285350E+00  2.748773436774E+00
  2.781758718015E+00  2.815139822632E+00  2.848921500503E+00  2.883108558509E+00
  2.917705861211E+00  2.952718331546E+00  2.988150951524E+00  3.024008762943E+00
  3.060296868098E+00  3.097020430515E+00  3.134184675681E+00  3.171794891790E+00
  3.209856430491E+00  3.248374707657E+00  3.287355204149E+00  3.326803466599E+00
  3.366725108198E+00  3.407125809496E+00  3.448011319210E+00  3.489387455041E+00
  3.531260104501E+00  3.573635225755E+00  3.616518848464E+00  3.659917074646E+00
  3.703836079541E+00  3.748282112496E+00  3.793261497846E+00  3.838780635820E+00
  3.884846003450E+00  3.931464155491E+00  3.978641725357E+00  4.026385426062E+00
  4.074702051174E+00  4.123598475788E+00  4.173081657498E+00  4.223158637388E+00
  4.273836541036E+00  4.325122579529E+00  4.377024050483E+00  4.429548339089E+00
  4.482702919158E+00  4.536495354188E+00  4.590933298438E+00  4.646024498020E+00
  4.701776791996E+00  4.758198113500E+00  4.815296490862E+00  4.873080048752E+00
  4.931557009337E+00  4.990735693449E+00  5.050624521770E+00  5.111232016032E+00
  5.172566800224E+00  5.234637601827E+00  5.297453253049E+00  5.361022692085E+00
  5.425354964390E+00  5.490459223963E+00  5.556344734651E+00  5.623020871466E+00
  5.690497121924E+00  5.758783087387E+00  5.827888484436E+00  5.897823146249E+00
  5.968597024004E+00  6.040220188292E+00  6.112702830551E+00  6.186055264518E+00
  6.260287927692E+00  6.335411382825E+00  6.411436319419E+00  6.488373555252E+00
  6.566234037915E+00  6.645028846370E+00  6.724769192526E+00  6.805466422836E+00
  6.887132019910E+00  6.969777604149E+00  7.053414935399E+00  7.138055914624E+00
  7.223712585599E+00  7.310397136626E+00  7.398121902266E+00  7.486899365093E+00
  7.576742157474E+00  7.667663063364E+00  7.759675020124E+00  7.852791120366E+00
  7.947024613810E+00  8.042388909176E+00  8.138897576086E+00  8.236564346999E+00
  8.335403119163E+00  8.435427956593E+00  8.536653092072E+00  8.639092929177E+00
  8.742762044327E+00  8.847675188859E+00  8.953847291125E+00  9.061293458619E+00
  9.170028980122E+00  9.280069327884E+00  9.391430159818E+00  9.504127321736E+00
  9.618176849597E+00  9.733594971792E+00  9.850398111454E+00  9.968602888791E+00
  1.008822612346E+01  1.020928483694E+01  1.033179625498E+01  1.045577781004E+01
  1.058124714376E+01  1.070822210949E+01  1.083672077480E+01  1.096676142410E+01
  1.109836256119E+01  1.123154291192E+01  1.136632142686E+01  1.150271728399E+01
  1.164074989140E+01  1.178043889009E+01  1.192180415677E+01  1.206486580665E+01
  1.220964419633E+01  1.235615992669E+01  1.250443384581E+01  1.265448705196E+01
  1.280634089658E+01  1.296001698734E+01  1.311553719119E+01  1.327292363748E+01
  1.343219872113E+01  1.359338510579E+01  1.375650572706E+01  1.392158379578E+01
  1.408864280133E+01  1.425770651495E+01  1.442879899313E+01  1.460194458104E+01
  1.477716791602E+01  1.495449393101E+01  1.513394785818E+01  1.531555523248E+01
  1.549934189527E+01  1.568533399801E+01  1.587355800599E+01  1.606404070206E+01
  1.625680919049E+01  1.645189090077E+01  1.664931359158E+01  1.684910535468E+01
  1.705129461894E+01  1.725591015436E+01  1.746298107622E+01  1.767253684913E+01
  1.788460729132E+01  1.809922257882E+01  1.831641324976E+01  1.853621020876E+01
  1.875864473126E+01  1.898374846804E+01  1.921155344965E+01  1.944209209105E+01
  1.967539719614E+01  1.991150196250E+01  2.015043998605E+01  2.039224526588E+01
  2.063695220907E+01  2.088459563558E+01  2.113521078321E+01  2.138883331260E+01
  2.164549931236E+01  2.190524530410E+01  2.216810824775E+01  2.243412554673E+01
  2.270333505329E+01  2.297577507393E+01  2.325148437481E+01  2.353050218731E+01
  2.381286821356E+01  2.409862263212E+01  2.438780610371E+01  2.468045977695E+01
  2.497662529428E+01  2.527634479781E+01  2.557966093538E+01  2.588661686660E+01
  2.619725626900E+01  2.651162334423E+01  2.682976282436E+01  2.715171997826E+01
  2.747754061799E+01  2.780727110541E+01  2.814095835868E+01  2.847864985898E+01
  2.882039365729E+01  2.916623838117E+01  2.951623324175E+01  2.987042804065E+01
  3.022887317714E+01  3.059161965526E+01  3.095871909113E+01  3.133022372022E+01
  3.170618640486E+01  3.208666064172E+01  3.247170056942E+01  3.286136097625E+01
  3.325569730797E+01  3.365476567566E+01  3.405862286377E+01  3.446732633814E+01
  3.488093425420E+01  3.529950546525E+01  3.572309953083E+01  3.615177672520E+01
  3.658559804590E+01  3.702462522245E+01  3.746892072512E+01  3.791854777382E+01
  3.837357034711E+01  3.883405319127E+01  3.930006182957E+01  3.977166257152E+01
  4.024892252238E+01  4.073190959265E+01  4.122069250776E+01  4.171534081786E+01
  4.221592490767E+01  4.272251600656E+01  4.323518619864E+01  4.375400843303E+01
  4.427905653422E+01
</grid-data>
</grid>
<valence-charge total-charge="8" is-unscreening-charge="yes"
 rescaled-to-z-pseudo="no">
<radfunc>
<data npts="457">
  1.095067906485E+01  1.095559772095E+01  1.097029586828E+01  1.099479967021E+01
  1.102883148863E+01  1.107351449770E+01  1.113035509639E+01  1.119529487330E+01
  1.126812457142E+01  1.135280414077E+01  1.144792823990E+01  1.155093209546E+01
  1.167487704200E+01  1.180369302790E+01  1.195482102466E+01  1.210485431630E+01
  1.227650970966E+01  1.243812303173E+01  1.261853322639E+01  1.281968436395E+01
  1.304365521931E+01  1.324073880814E+01  1.345501302870E+01  1.368769101984E+01
  1.394000909056E+01  1.421321107620E+01  1.450852818993E+01  1.474524910067E+01
  1.499556160706E+01  1.525991410471E+01  1.553871369379E+01  1.583231421789E+01
  1.614100259897E+01  1.646498332865E+01  1.680436098474E+01  1.715912065702E+01
  1.752910619014E+01  1.791399618581E+01  1.817862521853E+01  1.844944998547E+01
  1.872621806066E+01  1.900862548381E+01  1.929631245783E+01  1.958885891492E+01
  1.988577997879E+01  2.018652135789E+01  2.049045471120E+01  2.079687303687E+01
  2.110498614247E+01  2.141391626572E+01  2.172269392482E+01  2.203025408856E+01
  2.233543276838E+01  2.263696414650E+01  2.293347836646E+01  2.322350012512E+01
  2.350544821687E+01  2.377763619217E+01  2.403827430276E+01  2.428547291391E+01
  2.451724757051E+01  2.473152590616E+01  2.492615658361E+01  2.509892044895E+01
  2.524754407006E+01  2.536971581148E+01  2.546310457109E+01  2.549827677136E+01
  2.552538126907E+01  2.554413122979E+01  2.555424313415E+01  2.555543768837E+01
  2.554744077628E+01  2.552998445151E+01  2.550280796802E+01  2.546565884704E+01
  2.541829397778E+01  2.536048074900E+01  2.529199820821E+01  2.521263824454E+01
  2.512220679120E+01  2.502052504248E+01  2.490743068047E+01  2.478277910535E+01
  2.464644466333E+01  2.449832186536E+01  2.433832658946E+01  2.416639725908E+01
  2.398249598919E+01  2.378660969179E+01  2.357875113175E+01  2.335895992387E+01
  2.312730346142E+01  2.288387776654E+01  2.262880825252E+01  2.236225038776E+01
  2.208439025153E+01  2.179544497149E+01  2.149566303306E+01  2.118532445143E+01
  2.086474079669E+01  2.053425506398E+01  2.019424138038E+01  1.984510454171E+01
  1.948727937288E+01  1.912122990677E+01  1.874744837778E+01  1.836645402740E+01
  1.797879172079E+01  1.758503037488E+01  1.718576120019E+01  1.678159576050E+01
  1.637316385616E+01  1.596111123921E+01  1.554609716995E+01  1.512879182725E+01
  1.470987358637E+01  1.429002618044E+01  1.386993576360E+01  1.345028789552E+01
  1.303176446892E+01  1.261504060308E+01  1.220078152783E+01  1.178963948351E+01
  1.138225066327E+01  1.097923222447E+01  1.058117939651E+01  1.018866271168E+01
  9.802225385599E+00  9.422380872711E+00  9.049610620797E+00  8.684362047079E+00
  8.327046756172E+00  7.978039017762E+00  7.637674519115E+00  7.306249404418E+00
  6.984019609630E+00  6.671200498011E+00  6.367966797834E+00  6.074452840081E+00
  5.790753090215E+00  5.516922964527E+00  5.252979918107E+00  4.998904788279E+00
  4.754643374483E+00  4.520108233043E+00  4.295180663234E+00  4.079712859424E+00
  3.873530202997E+00  3.676433667184E+00  3.488202307864E+00  3.308595813804E+00
  3.137357090695E+00  2.974214854553E+00  2.818886211630E+00  2.671079203749E+00
  2.530495299829E+00  2.396831816343E+00  2.269784251208E+00  2.149048517306E+00
  2.034323063236E+00  1.925310869945E+00  1.821721427827E+00  1.723273026817E+00
  1.629695160299E+00  1.540729780825E+00  1.456132375273E+00  1.375672844885E+00
  1.299136180725E+00  1.226322923626E+00  1.157049398100E+00  1.091147710802E+00
  1.028465506148E+00  9.688654746648E-01  9.122238498985E-01  8.584257148520E-01
  8.073586772417E-01  7.589129662284E-01  7.129814360638E-01  6.694596159415E-01
  6.282457505487E-01  5.892408317636E-01  5.523486219534E-01  5.174756693219E-01
  4.845313157614E-01  4.534276976553E-01  4.240797400778E-01  3.964051448281E-01
  3.703243727312E-01  3.457606206262E-01  3.226397934553E-01  3.008904718534E-01
  2.804438756267E-01  2.612338234958E-01  2.431966894638E-01  2.262713561566E-01
  2.103991654655E-01  1.955238668102E-01  1.815915633195E-01  1.685506562169E-01
  1.563517876781E-01  1.449477824149E-01  1.342935882217E-01  1.243462157103E-01
  1.150646774397E-01  1.064099266366E-01  9.834479568904E-02  9.083393458127E-02
  8.384374942813E-02  7.734234125464E-02  7.129944515642E-02  6.568636996652E-02
  6.047593854504E-02  5.564242879866E-02  5.116151552943E-02  4.701021320379E-02
  4.316681972559E-02  3.961086128927E-02  3.632303838290E-02  3.328517300363E-02
  3.048015714175E-02  2.789190258314E-02  2.550529207362E-02  2.330613188259E-02
  2.128110579739E-02  1.941773057374E-02  1.770431286209E-02  1.612990762389E-02
  1.468427804641E-02  1.335785695943E-02  1.214170975197E-02  1.102749878243E-02
  1.000744927073E-02  9.074316656860E-03  8.221355405892E-03  7.442289235880E-03
  6.731282741534E-03  6.082914383317E-03  5.492150808834E-03  4.954322470834E-03
  4.465100504026E-03  4.020474821024E-03  3.616733386318E-03  3.250442625959E-03
  2.918428929838E-03  2.617761202911E-03  2.345734421482E-03  2.099854150686E-03
  1.877821979628E-03  1.677521831134E-03  1.497007103807E-03  1.334488604974E-03
  1.188323234209E-03  1.057003378239E-03  9.391469794197E-04  8.334882412585E-04
  7.388689359542E-04  6.542302803494E-04  5.786053481909E-04  5.111119880659E-04
  4.509462178467E-04  3.973760679150E-04  3.497358468302E-04  3.074208044628E-04
  2.698821689118E-04  2.366225347698E-04  2.071915814880E-04  1.811821017227E-04
  1.582263206130E-04  1.379924879579E-04  1.201817262162E-04  1.045251181639E-04
  9.078101890042E-05  7.873257770869E-05  6.818545604411E-05  5.896572865822E-05
  5.091795555747E-05  4.390341315796E-05  3.779847362736E-05  3.249312200597E-05
  2.788960127431E-05  2.390117608433E-05  2.045100639869E-05  1.747112278794E-05
  1.490149562007E-05  1.268919084192E-05  1.078760549833E-05  9.155776562186E-06
  7.757757058870E-06  6.562053860785E-06  5.541121903136E-06  4.670909930587E-06
  3.930453226404E-06  3.301509101295E-06  2.768231228670E-06  2.316879206722E-06
  1.935560005787E-06  1.613998222207E-06  1.343332307684E-06  1.115934176202E-06
  9.252498094345E-07  7.656586864476E-07  6.323500549954E-07  5.212142401568E-07
  4.287473520063E-07  3.519679079252E-07  2.883440275790E-07  2.357299900264E-07
  1.923110634415E-07  1.565556290624E-07  1.271737227717E-07  1.030812107273E-07
  8.336890021890E-08  6.727596397470E-08  5.416712599602E-08  4.351312016416E-08
  3.487398983811E-08  2.788484791202E-08  2.224376278413E-08  1.770147683597E-08
  1.405270074201E-08  1.112875961573E-08  8.791396011969E-09  6.927560491849E-09
  5.445043134923E-09  4.268819350823E-09  3.338000876022E-09  2.603298194048E-09
  2.024914023664E-09  1.570799193204E-09  1.215212355505E-09  9.375337744186E-10
  7.212909911335E-10  5.533607017243E-10  4.233167766208E-10  3.228991449489E-10
  2.455823558323E-10  1.862261139574E-10  1.407929703085E-10  1.061213161984E-10
  7.974184135695E-11  5.973354616105E-11  4.460539106152E-11  3.320307258882E-11
  2.463623408058E-11  1.822042680220E-11  1.343116851939E-11  9.867854231229E-12
  7.225497684766E-12  5.272676763215E-12  3.834377646907E-12  2.778694293794E-12
  2.006551797222E-12  1.443793378841E-12  1.035108538401E-12  7.393902438324E-13
  5.261980941587E-13  3.730721489760E-13  2.635023263583E-13  1.853975108371E-13
  1.299363223080E-13  9.070755795914E-14  6.306975514945E-14  4.367586640806E-14
  3.012186290319E-14  2.068799260350E-14  1.414899815019E-14  0.000000000000E+00
  0.000000000000E+00  0.000000000000E+00  0.000000000000E+00  0.000000000000E+00
  0.000000000000E+00  0.000000000000E+00  0.000000000000E+00  0.000000000000E+00
  0.000000000000E+00  0.000000000000E+00  0.000000000000E+00  0.000000000000E+00
  0.000000000000E+00  0.000000000000E+00  0.000000000000E+00  0.000000000000E+00
  0.000000000000E+00  0.000000000000E+00  0.000000000000E+00  0.000000000000E+00
  0.000000000000E+00  0.000000000000E+00  0.000000000000E+00  0.000000000000E+00
  0.000000000000E+00  0.000000000000E+00  0.000000000000E+00  0.000000000000E+00
  0.000000000000E+00  0.000000000000E+00  0.000000000000E+00  0.000000000000E+00
  0.000000000000E+00  0.000000000000E+00  0.000000000000E+00  0.000000000000E+00
  0.000000000000E+00  0.000000000000E+00  0.000000000000E+00  0.000000000000E+00
  0.000000000000E+00  0.000000000000E+00  0.000000000000E+00  0.000000000000E+00
  0.000000000000E+00  0.000000000000E+00  0.000000000000E+00  0.000000000000E+00
  0.000000000000E+00  0.000000000000E+00  0.000000000000E+00  0.000000000000E+00
  0.000000000000E+00  0.000000000000E+00  0.000000000000E+00  0.000000000000E+00
  0.000000000000E+00  0.000000000000E+00  0.000000000000E+00  0.000000000000E+00
  0.000000000000E+00  0.000000000000E+00  0.000000000000E+00  0.000000000000E+00
  0.000000000000E+00  0.000000000000E+00  0.000000000000E+00  0.000000000000E+00
  0.000000000000E+00  0.000000000000E+00  0.000000000000E+00  0.000000000000E+00
  0.000000000000E+00  0.000000000000E+00  0.000000000000E+00  0.000000000000E+00
  0.000000000000E+00  0.000000000000E+00  0.000000000000E+00  0.000000000000E+00
  0.000000000000E+00  0.000000000000E+00  0.000000000000E+00  0.000000000000E+00
  0.000000000000E+00  0.000000000000E+00  0.000000000000E+00  0.000000000000E+00
  0.000000000000E+00
</data>
</radfunc>
</valence-charge>
<semilocal-potentials set="scalar_relativistic">
<slps n="2" l="s" rc="1.31204028561" eref="-1.33034381146">
<radfunc>
<data npts="256">
 -1.325521394341E+01 -1.325827789756E+01 -1.326711779971E+01 -1.328100230023E+01
 -1.329865683303E+01 -1.331926923768E+01 -1.334184397754E+01 -1.336342563837E+01
 -1.338322446554E+01 -1.340150138214E+01 -1.341719142989E+01 -1.342965457581E+01
 -1.343985820500E+01 -1.344625800510E+01 -1.344971704627E+01 -1.344996198991E+01
 -1.344741504758E+01 -1.344300812906E+01 -1.343642973262E+01 -1.342762343974E+01
 -1.341656274452E+01 -1.340609095409E+01 -1.339418866265E+01 -1.338087668602E+01
 -1.336618329497E+01 -1.335014289556E+01 -1.333279476738E+01 -1.331895121895E+01
 -1.330441532902E+01 -1.328920679535E+01 -1.327334561282E+01 -1.325685178188E+01
 -1.323974496907E+01 -1.322204409363E+01 -1.320376681029E+01 -1.318492885444E+01
 -1.316554321186E+01 -1.314561907078E+01 -1.313203941506E+01 -1.311822199820E+01
 -1.310416486197E+01 -1.308986417676E+01 -1.307531390862E+01 -1.306050544109E+01
 -1.304542714711E+01 -1.303006390726E+01 -1.301439657021E+01 -1.299840135293E+01
 -1.298204917909E+01 -1.296530495671E+01 -1.294812679917E+01 -1.293046519804E+01
 -1.291226216158E+01 -1.289345033969E+01 -1.287395216402E+01 -1.285367904064E+01
 -1.283253064187E+01 -1.281039435242E+01 -1.278714493148E+01 -1.276264445581E+01
 -1.273674260674E+01 -1.270927735515E+01 -1.268007608113E+01 -1.264895713834E+01
 -1.261573183874E+01 -1.258020679162E+01 -1.254218648818E+01 -1.252217960043E+01
 -1.250147598314E+01 -1.248005178342E+01 -1.245788349527E+01 -1.243494802303E+01
 -1.241122273636E+01 -1.238668551570E+01 -1.236131478718E+01 -1.233508954652E+01
 -1.230798937149E+01 -1.227999442288E+01 -1.225108543421E+01 -1.222124369087E+01
 -1.219045099947E+01 -1.215868964852E+01 -1.212594236187E+01 -1.209219224645E+01
 -1.205742273599E+01 -1.202161753250E+01 -1.198476054739E+01 -1.194683584401E+01
 -1.190782758330E+01 -1.186771997427E+01 -1.182649723069E+01 -1.178414353542E+01
 -1.174064301338E+01 -1.169597971401E+01 -1.165013760409E+01 -1.160310057119E+01
 -1.155485243802E+01 -1.150537698790E+01 -1.145465800103E+01 -1.140267930151E+01
 -1.134942481451E+01 -1.129487863333E+01 -1.123902509561E+01 -1.118184886818E+01
 -1.112333503988E+01 -1.106346922165E+01 -1.100223765321E+01 -1.093962731584E+01
 -1.087562605035E+01 -1.081022267993E+01 -1.074340713711E+01 -1.067517059446E+01
 -1.060550559841E+01 -1.053440620589E+01 -1.046186812333E+01 -1.038788884766E+01
 -1.031246780908E+01 -1.023560651520E+01 -1.015730869651E+01 -1.007758045279E+01
 -9.996430400536E+00 -9.913869821079E+00 -9.829912809561E+00 -9.744576424628E+00
 -9.657880838969E+00 -9.569849490827E+00 -9.480509236667E+00 -9.389890505302E+00
 -9.298027453845E+00 -9.204958125956E+00 -9.110724612974E+00 -9.015373218629E+00
 -8.918954628169E+00 -8.821524082901E+00 -8.723141561293E+00 -8.623871968006E+00
 -8.523785332459E+00 -8.422957018832E+00 -8.321467949736E+00 -8.219404846274E+00
 -8.116860487681E+00 -8.013933994457E+00 -7.910731139588E+00 -7.807364693433E+00
 -7.703954808776E+00 -7.600629453681E+00 -7.497524900882E+00 -7.394786283500E+00
 -7.292568227767E+00 -7.191035574015E+00 -7.090364197241E+00 -6.990741937894E+00
 -6.892369651871E+00 -6.795462385844E+00 -6.700250679674E+00 -6.606981991634E+00
 -6.515922234264E+00 -6.427357398955E+00 -6.341595245078E+00 -6.258966887424E+00
 -6.179828314889E+00 -6.104563983591E+00 -6.031771251216E+00 -5.959681455215E+00
 -5.888351201558E+00 -5.817799420608E+00 -5.748048630703E+00 -5.679123064787E+00
 -5.611047851432E+00 -5.543847866130E+00 -5.477546266997E+00 -5.412163968105E+00
 -5.347718934561E+00 -5.284203834514E+00 -5.221540823287E+00 -5.159632072959E+00
 -5.098448908037E+00 -5.037992230302E+00 -4.978252371624E+00 -4.919220931040E+00
 -4.860889499843E+00 -4.803249775967E+00 -4.746293555801E+00 -4.690012733024E+00
 -4.634399297455E+00 -4.579445333914E+00 -4.525143021105E+00 -4.471484630501E+00
 -4.418462525253E+00 -4.366069159106E+00 -4.314297075331E+00 -4.263138905669E+00
 -4.212587369287E+00 -4.162635271753E+00 -4.113275504012E+00 -4.064501041383E+00
 -4.016304942564E+00 -3.968680348650E+00 -3.921620482164E+00 -3.875118646085E+00
 -3.829168222915E+00 -3.783762673729E+00 -3.738895537237E+00 -3.694560428882E+00
 -3.650751039912E+00 -3.607461136490E+00 -3.564684558793E+00 -3.522415220135E+00
 -3.480647106088E+00 -3.439374273621E+00 -3.398590850238E+00 -3.358291033135E+00
 -3.318469088361E+00 -3.279119349989E+00 -3.240236219296E+00 -3.201814163950E+00
 -3.163847717217E+00 -3.126331477161E+00 -3.089260105872E+00 -3.052628328686E+00
 -3.016430933432E+00 -2.980662769675E+00 -2.945318747978E+00 -2.910393839172E+00
 -2.875883073632E+00 -2.841781540573E+00 -2.808084387344E+00 -2.774786818738E+00
 -2.741884096318E+00 -2.709371537738E+00 -2.677244516088E+00 -2.645498459242E+00
 -2.614128849210E+00 -2.583131221513E+00 -2.552501164550E+00 -2.522234318986E+00
 -2.492326377140E+00 -2.462773082384E+00 -2.433570228553E+00 -2.404713659352E+00
 -2.376199267777E+00 -2.348022995542E+00 -2.320180832511E+00 -2.292668816134E+00
 -2.265483030891E+00 -2.238619607739E+00 -2.212074723570E+00 -2.185844600664E+00
 -2.159925506162E+00 -2.134313751526E+00 -2.109005692020E+00 -2.083997726189E+00
 -2.059286295342E+00 -2.034867883045E+00 -2.010739014615E+00 -1.986896256621E+00
</data>
</radfunc>
</slps>
<slps n="2" l="p" rc="1.51395623227" eref="-0.487689514268">
<radfunc>
<data npts="256">
 -2.067205603013E+01 -2.067480453833E+01 -2.068270140317E+01 -2.069501238300E+01
 -2.071047874434E+01 -2.072821315707E+01 -2.074711864731E+01 -2.076449692513E+01
 -2.077956722918E+01 -2.079232689849E+01 -2.080179412733E+01 -2.080748875118E+01
 -2.080950561846E+01 -2.080734743517E+01 -2.080070087631E+01 -2.079084250341E+01
 -2.077664790984E+01 -2.076118695566E+01 -2.074216618349E+01 -2.071935650572E+01
 -2.069253772196E+01 -2.066805099712E+01 -2.064074916986E+01 -2.061051827506E+01
 -2.057723909379E+01 -2.054078471849E+01 -2.050101809525E+01 -2.046892997979E+01
 -2.043482626497E+01 -2.039863299790E+01 -2.036027023672E+01 -2.031965138687E+01
 -2.027668247439E+01 -2.023126133093E+01 -2.018327666129E+01 -2.013260696047E+01
 -2.007911924372E+01 -2.002266754880E+01 -1.998330773534E+01 -1.994250783681E+01
 -1.990021253644E+01 -1.985636252723E+01 -1.981089411731E+01 -1.976373879019E+01
 -1.971482271587E+01 -1.966406620867E+01 -1.961138312859E+01 -1.955668022362E+01
 -1.949985641190E+01 -1.944080200536E+01 -1.937939787904E+01 -1.931551459523E+01
 -1.924901149685E+01 -1.917973579130E+01 -1.910752165424E+01 -1.903218939142E+01
 -1.895354470620E+01 -1.887137812871E+01 -1.878546466971E+01 -1.869556376547E+01
 -1.860141957841E+01 -1.850276170949E+01 -1.839930636159E+01 -1.829075796689E+01
 -1.817681125737E+01 -1.805715371712E+01 -1.793146831284E+01 -1.786626555900E+01
 -1.779943636083E+01 -1.773094109041E+01 -1.766074036054E+01 -1.758879509878E+01
 -1.751506661432E+01 -1.743951665648E+01 -1.736210746432E+01 -1.728280180673E+01
 -1.720156301286E+01 -1.711835499310E+01 -1.703314225096E+01 -1.694588988674E+01
 -1.685656359410E+01 -1.676512965088E+01 -1.667155490599E+01 -1.657580676406E+01
 -1.647785317015E+01 -1.637766259647E+01 -1.627520403365E+01 -1.617044698865E+01
 -1.606336149169E+01 -1.595391811437E+01 -1.584208800117E+01 -1.572784291627E+01
 -1.561115530756E+01 -1.549199838962E+01 -1.537034624717E+01 -1.524617396041E+01
 -1.511945775366E+01 -1.499017516834E+01 -1.485830526141E+01 -1.472382883043E+01
 -1.458672866598E+01 -1.444698983256E+01 -1.430459997885E+01 -1.415954967823E+01
 -1.401183280062E+01 -1.386144691651E+01 -1.370839373428E+01 -1.355267957171E+01
 -1.339431586282E+01 -1.323331970084E+01 -1.306971441827E+01 -1.290353020470E+01
 -1.273480476294E+01 -1.256358400365E+01 -1.238992277838E+01 -1.221388565021E+01
 -1.203554770085E+01 -1.185499537200E+01 -1.167232733801E+01 -1.148765540549E+01
 -1.130110543452E+01 -1.111281827401E+01 -1.092295070238E+01 -1.073167636227E+01
 -1.053918667564E+01 -1.034569172296E+01 -1.015142106725E+01 -9.956624500082E+00
 -9.761572683660E+00 -9.566557658882E+00 -9.371893185709E+00 -9.177914878151E+00
 -8.984980092421E+00 -8.793467523280E+00 -8.603776460539E+00 -8.416325655369E+00
 -8.231551744737E+00 -8.049907182325E+00 -7.871857626002E+00 -7.697878735676E+00
 -7.528452341613E+00 -7.364061952269E+00 -7.205187582795E+00 -7.052299900707E+00
 -6.905853703931E+00 -6.766280768373E+00 -6.633982127023E+00 -6.509319869870E+00
 -6.392608582634E+00 -6.284106571553E+00 -6.184007049779E+00 -6.092429486722E+00
 -6.009411343503E+00 -5.934900433569E+00 -5.868748156274E+00 -5.810703851409E+00
 -5.760410513677E+00 -5.717402087787E+00 -5.681102547137E+00 -5.650826795928E+00
 -5.625783608856E+00 -5.605082906569E+00 -5.587748128900E+00 -5.572721296879E+00
 -5.558865200197E+00 -5.544980659722E+00 -5.529826540539E+00 -5.512136409563E+00
 -5.490638620133E+00 -5.464078569575E+00 -5.431243344506E+00 -5.390990284815E+00
 -5.342278702559E+00 -5.284183701592E+00 -5.221540823287E+00 -5.159632072959E+00
 -5.098448908037E+00 -5.037992230302E+00 -4.978252371624E+00 -4.919220931040E+00
 -4.860889499843E+00 -4.803249775967E+00 -4.746293555801E+00 -4.690012733024E+00
 -4.634399297455E+00 -4.579445333914E+00 -4.525143021105E+00 -4.471484630501E+00
 -4.418462525253E+00 -4.366069159106E+00 -4.314297075331E+00 -4.263138905669E+00
 -4.212587369287E+00 -4.162635271753E+00 -4.113275504012E+00 -4.064501041383E+00
 -4.016304942564E+00 -3.968680348650E+00 -3.921620482164E+00 -3.875118646085E+00