<?xml version="1.0" encoding="UTF-8" ?>
<psml version="1.1" energy_unit="hartree" length_unit="bohr"
 uuid="66444950-1d5f-11e8-6820-b743bb68037b"
 xmlns="http://esl.cecam.org/PSML/ns/1.1">
<provenance creator="ONCVPSP-3.3.0+psml-3.3.0-73 (scalar-relativistic)"
 date="2018-03-01">
<annotation action="semilocal-pseudopotential-generation"
 action-cont="projectors-generation" />
<input-file name="oncvpsp-input">
<![CDATA[# atsym z nc nv iexc psfile
Ne 10 1 2 -116133 upf
# n l f
1 0 2.0
2 0 2.0
2 1 6.0
# lmax
1
# l rc ep ncon nbas qcut
0 1.3 0.0 4 7 8.0
1 1.7 0.0 4 7 8.0
# lloc lpopt rc5 dvloc0
4 5 1.3 0.0
# l nproj debl
0 2 1.5
1 2 1.5
# icmod fcfact rcfact
0 0.05 0.0
# epsh1 epsh2 depsh
-12.0 12.0 0.02
# rlmax drl
4.0 0.01
 0
]]>
</input-file>
</provenance>
<pseudo-atom-spec atomic-label="Ne" atomic-number="10" z-pseudo="8"
 flavor="Hamann&apos;s oncvpsp" relativity="scalar" spin-dft="no"
 core-corrections="no">
<annotation pseudo-energy="-33.2889309056" />
<exchange-correlation>
<annotation oncvpsp-xc-code="-116133" oncvpsp-xc-type="libxc-interface" />
<libxc-info number-of-functionals="2">
<functional name="Perdew, Burke &amp; Ernzerhof SOL (GGA)" type="exchange"
 id="116" />
<functional name="Perdew, Burke &amp; Ernzerhof SOL (GGA)" type="correlation"
 id="133" />
</libxc-info>
</exchange-correlation>
<valence-configuration total-valence-charge="8">
<shell n="2" l="s" occupation="2" />
<shell n="2" l="p" occupation="6" />
</valence-configuration>
</pseudo-atom-spec>
<grid npts="457">
<annotation type="sampled from oncvpsp log grid"
 recipe="r(i:1..N) = r1*exp(a*(i-1)) + r=0; resampled"
 recipe-cont="r1: scale; a: step" scale="0.500000000000E-04"
 step="0.119285708653E-01" delta="0.500000000000E-02" rmax="44.2790565342" />
<grid-data>
  0.000000000000E+00  5.056247722070E-03  1.009945802476E-02  1.515079750118E-02
  2.017287482746E-02  2.530448665413E-02  3.062567936492E-02  3.576287246250E-02
  4.077725916977E-02  4.594340263175E-02  5.115025098203E-02  5.627193755841E-02
  6.190645980780E-02  6.729759692282E-02  7.315822235107E-02  7.858618733336E-02
  8.441687948565E-02  8.960492005827E-02  9.511180403221E-02  1.009571266888E-01
  1.071616875840E-01  1.123987792098E-01  1.178918123882E-01  1.236532952216E-01
  1.296963470949E-01  1.360347285499E-01  1.426828726186E-01  1.478813415899E-01
  1.532692101656E-01  1.588533788796E-01  1.646409996776E-01  1.706394850775E-01
  1.768565176628E-01  1.833000599224E-01  1.899783644480E-01  1.968999845042E-01
  2.040737849828E-01  2.115089537568E-01  2.166156259363E-01  2.218455936089E-01
  2.272018336210E-01  2.326873946919E-01  2.383053991494E-01  2.440590447064E-01
  2.499516062818E-01  2.559864378639E-01  2.621669744197E-01  2.684967338501E-01
  2.749793189921E-01  2.816184196699E-01  2.884178147944E-01  2.953813745148E-01
  3.025130624211E-01  3.098169378002E-01  3.172971579464E-01  3.249579805279E-01
  3.328037660097E-01  3.408389801363E-01  3.490681964727E-01  3.574960990083E-01
  3.661274848228E-01  3.749672668164E-01  3.840204765064E-01  3.932922668911E-01
  4.027879153830E-01  4.125128268120E-01  4.224725365025E-01  4.275422069405E-01
  4.326727134238E-01  4.378647859849E-01  4.431191634167E-01  4.484365933777E-01
  4.538178324983E-01  4.592636464882E-01  4.647748102461E-01  4.703521079691E-01
  4.759963332647E-01  4.817082892639E-01  4.874887887350E-01  4.933386541998E-01
  4.992587180502E-01  5.052498226668E-01  5.113128205389E-01  5.174485743853E-01
  5.236579572779E-01  5.299418527653E-01  5.363011549985E-01  5.427367688584E-01
  5.492496100847E-01  5.558406054058E-01  5.625106926706E-01  5.692608209827E-01
  5.760919508345E-01  5.830050542445E-01  5.900011148954E-01  5.970811282742E-01
  6.042461018134E-01  6.114970550352E-01  6.188350196956E-01  6.262610399320E-01
  6.337761724112E-01  6.413814864801E-01  6.490780643179E-01  6.568670010897E-01
  6.647494051028E-01  6.727263979640E-01  6.807991147396E-01  6.889687041164E-01
  6.972363285658E-01  7.056031645086E-01  7.140704024827E-01  7.226392473125E-01
  7.313109182803E-01  7.400866492996E-01  7.489676890912E-01  7.579553013603E-01
  7.670507649766E-01  7.762553741564E-01  7.855704386462E-01  7.949972839100E-01
  8.045372513169E-01  8.141916983327E-01  8.239619987127E-01  8.338495426973E-01
  8.438557372096E-01  8.539820060561E-01  8.642297901288E-01  8.746005476104E-01
  8.850957541817E-01  8.957169032319E-01  9.064655060706E-01  9.173430921435E-01
  9.283512092492E-01  9.394914237602E-01  9.507653208453E-01  9.621745046955E-01
  9.737205987518E-01  9.854052459368E-01  9.972301088881E-01  1.009196870195E+00
  1.021307232637E+00  1.033562919429E+00  1.045965674462E+00  1.058517262555E+00
  1.071219469706E+00  1.084074103343E+00  1.097082992583E+00  1.110247988494E+00
  1.123570964356E+00  1.137053815928E+00  1.150698461719E+00  1.164506843260E+00
  1.178480925379E+00  1.192622696483E+00  1.206934168841E+00  1.221417378867E+00
  1.236074387414E+00  1.250907280063E+00  1.265918167423E+00  1.281109185432E+00
  1.296482495658E+00  1.312040285605E+00  1.327784769033E+00  1.343718186261E+00
  1.359842804496E+00  1.376160918150E+00  1.392674849168E+00  1.409386947358E+00
  1.426299590726E+00  1.443415185815E+00  1.460736168045E+00  1.478265002061E+00
  1.496004182086E+00  1.513956232271E+00  1.532123707058E+00  1.550509191543E+00
  1.569115301842E+00  1.587944685464E+00  1.607000021689E+00  1.626284021949E+00
  1.645799430213E+00  1.665549023375E+00  1.685535611656E+00  1.705762038996E+00
  1.726231183464E+00  1.746945957665E+00  1.767909309157E+00  1.789124220867E+00
  1.810593711518E+00  1.832320836056E+00  1.854308686088E+00  1.876560390322E+00
  1.899079115005E+00  1.921868064385E+00  1.944930481158E+00  1.968269646932E+00
  1.991888882695E+00  2.015791549288E+00  2.039981047879E+00  2.064460820454E+00
  2.089234350299E+00  2.114305162503E+00  2.139676824453E+00  2.165352946346E+00
  2.191337181702E+00  2.217633227883E+00  2.244244826617E+00  2.271175764537E+00
  2.298429873711E+00  2.326011032196E+00  2.353923164582E+00  2.382170242557E+00
  2.410756285468E+00  2.439685360893E+00  2.468961585224E+00  2.498589124247E+00
  2.528572193738E+00  2.558915060062E+00  2.589622040783E+00  2.620697505273E+00
  2.652145875336E+00  2.683971625840E+00  2.716179285350E+00  2.748773436774E+00
  2.781758718015E+00  2.815139822632E+00  2.848921500503E+00  2.883108558509E+00
  2.917705861211E+00  2.952718331546E+00  2.988150951524E+00  3.024008762943E+00
  3.060296868098E+00  3.097020430515E+00  3.134184675681E+00  3.171794891790E+00
  3.209856430491E+00  3.248374707657E+00  3.287355204149E+00  3.326803466599E+00
  3.366725108198E+00  3.407125809496E+00  3.448011319210E+00  3.489387455041E+00
  3.531260104501E+00  3.573635225755E+00  3.616518848464E+00  3.659917074646E+00
  3.703836079541E+00  3.748282112496E+00  3.793261497846E+00  3.838780635820E+00
  3.884846003450E+00  3.931464155491E+00  3.978641725357E+00  4.026385426062E+00
  4.074702051174E+00  4.123598475788E+00  4.173081657498E+00  4.223158637388E+00
  4.273836541036E+00  4.325122579529E+00  4.377024050483E+00  4.429548339089E+00
  4.482702919158E+00  4.536495354188E+00  4.590933298438E+00  4.646024498020E+00
  4.701776791996E+00  4.758198113500E+00  4.815296490862E+00  4.873080048752E+00
  4.931557009337E+00  4.990735693449E+00  5.050624521770E+00  5.111232016032E+00
  5.172566800224E+00  5.234637601827E+00  5.297453253049E+00  5.361022692085E+00
  5.425354964390E+00  5.490459223963E+00  5.556344734651E+00  5.623020871466E+00
  5.690497121924E+00  5.758783087387E+00  5.827888484436E+00  5.897823146249E+00
  5.968597024004E+00  6.040220188292E+00  6.112702830551E+00  6.186055264518E+00
  6.260287927692E+00  6.335411382825E+00  6.411436319419E+00  6.488373555252E+00
  6.566234037915E+00  6.645028846370E+00  6.724769192526E+00  6.805466422836E+00
  6.887132019910E+00  6.969777604149E+00  7.053414935399E+00  7.138055914624E+00
  7.223712585599E+00  7.310397136626E+00  7.398121902266E+00  7.486899365093E+00
  7.576742157474E+00  7.667663063364E+00  7.759675020124E+00  7.852791120366E+00
  7.947024613810E+00  8.042388909176E+00  8.138897576086E+00  8.236564346999E+00
  8.335403119163E+00  8.435427956593E+00  8.536653092072E+00  8.639092929177E+00
  8.742762044327E+00  8.847675188859E+00  8.953847291125E+00  9.061293458619E+00
  9.170028980122E+00  9.280069327884E+00  9.391430159818E+00  9.504127321736E+00
  9.618176849597E+00  9.733594971792E+00  9.850398111454E+00  9.968602888791E+00
  1.008822612346E+01  1.020928483694E+01  1.033179625498E+01  1.045577781004E+01
  1.058124714376E+01  1.070822210949E+01  1.083672077480E+01  1.096676142410E+01
  1.109836256119E+01  1.123154291192E+01  1.136632142686E+01  1.150271728399E+01
  1.164074989140E+01  1.178043889009E+01  1.192180415677E+01  1.206486580665E+01
  1.220964419633E+01  1.235615992669E+01  1.250443384581E+01  1.265448705196E+01
  1.280634089658E+01  1.296001698734E+01  1.311553719119E+01  1.327292363748E+01
  1.343219872113E+01  1.359338510579E+01  1.375650572706E+01  1.392158379578E+01
  1.408864280133E+01  1.425770651495E+01  1.442879899313E+01  1.460194458104E+01
  1.477716791602E+01  1.495449393101E+01  1.513394785818E+01  1.531555523248E+01
  1.549934189527E+01  1.568533399801E+01  1.587355800599E+01  1.606404070206E+01
  1.625680919049E+01  1.645189090077E+01  1.664931359158E+01  1.684910535468E+01
  1.705129461894E+01  1.725591015436E+01  1.746298107622E+01  1.767253684913E+01
  1.788460729132E+01  1.809922257882E+01  1.831641324976E+01  1.853621020876E+01
  1.875864473126E+01  1.898374846804E+01  1.921155344965E+01  1.944209209105E+01
  1.967539719614E+01  1.991150196250E+01  2.015043998605E+01  2.039224526588E+01
  2.063695220907E+01  2.088459563558E+01  2.113521078321E+01  2.138883331260E+01
  2.164549931236E+01  2.190524530410E+01  2.216810824775E+01  2.243412554673E+01
  2.270333505329E+01  2.297577507393E+01  2.325148437481E+01  2.353050218731E+01
  2.381286821356E+01  2.409862263212E+01  2.438780610371E+01  2.468045977695E+01
  2.497662529428E+01  2.527634479781E+01  2.557966093538E+01  2.588661686660E+01
  2.619725626900E+01  2.651162334423E+01  2.682976282436E+01  2.715171997826E+01
  2.747754061799E+01  2.780727110541E+01  2.814095835868E+01  2.847864985898E+01
  2.882039365729E+01  2.916623838117E+01  2.951623324175E+01  2.987042804065E+01
  3.022887317714E+01  3.059161965526E+01  3.095871909113E+01  3.133022372022E+01
  3.170618640486E+01  3.208666064172E+01  3.247170056942E+01  3.286136097625E+01
  3.325569730797E+01  3.365476567566E+01  3.405862286377E+01  3.446732633814E+01
  3.488093425420E+01  3.529950546525E+01  3.572309953083E+01  3.615177672520E+01
  3.658559804590E+01  3.702462522245E+01  3.746892072512E+01  3.791854777382E+01
  3.837357034711E+01  3.883405319127E+01  3.930006182957E+01  3.977166257152E+01
  4.024892252238E+01  4.073190959265E+01  4.122069250776E+01  4.171534081786E+01
  4.221592490767E+01  4.272251600656E+01  4.323518619864E+01  4.375400843303E+01
  4.427905653422E+01
</grid-data>
</grid>
<valence-charge total-charge="8" is-unscreening-charge="yes"
 rescaled-to-z-pseudo="no">
<radfunc>
<data npts="457">
  1.136132377496E+01  1.136463163373E+01  1.137451693361E+01  1.139099915396E+01
  1.141389463418E+01  1.144396356930E+01  1.148222647428E+01  1.152595885034E+01
  1.157502673894E+01  1.163210798036E+01  1.169626803621E+01  1.176578893947E+01
  1.184950771727E+01  1.193659141743E+01  1.203885694494E+01  1.214048779221E+01
  1.225689651986E+01  1.236662496772E+01  1.248926649978E+01  1.262619806418E+01
  1.277890436218E+01  1.291349195078E+01  1.306004991565E+01  1.321947343654E+01
  1.339268779987E+01  1.358064025953E+01  1.378428916524E+01  1.394790190538E+01
  1.412127788366E+01  1.430480153075E+01  1.449883937024E+01  1.470373286843E+01
  1.491979014753E+01  1.514727644530E+01  1.538640320264E+01  1.563731566196E+01
  1.590007886426E+01  1.617466194341E+01  1.636421792289E+01  1.655889111990E+01
  1.675857792669E+01  1.696314288064E+01  1.717241558632E+01  1.738618748170E+01
  1.760420845687E+01  1.782618333732E+01  1.805176824768E+01  1.828056687650E+01
  1.851212666796E+01  1.874593497202E+01  1.898141519130E+01  1.921792296981E+01
  1.945474247694E+01  1.969108284828E+01  1.992607485428E+01  2.015876787714E+01
  2.038812728701E+01  2.061303231855E+01  2.083227455999E+01  2.104455717724E+01
  2.124849500584E+01  2.144261565324E+01  2.162536176195E+01  2.179509459133E+01
  2.195009907982E+01  2.208859055158E+01  2.220872322908E+01  2.226131404206E+01
  2.230860070734E+01  2.235034032722E+01  2.238628853347E+01  2.241620000416E+01
  2.243982901770E+01  2.245693004455E+01  2.246725837680E+01  2.247057079590E+01
  2.246662627831E+01  2.245518673897E+01  2.243601781183E+01  2.240888966688E+01
  2.237357786248E+01  2.232986423156E+01  2.227753780022E+01  2.221639573647E+01
  2.214624432684E+01  2.206689997802E+01  2.197819024050E+01  2.187995485047E+01
  2.177204678613E+01  2.165433333391E+01  2.152669715976E+01  2.138903738030E+01
  2.124127062793E+01  2.108333210394E+01  2.091517661279E+01  2.073677957078E+01
  2.054813798155E+01  2.034927137074E+01  2.014022267165E+01  1.992105905358E+01
  1.969187268416E+01  1.945278141691E+01  1.920392939500E+01  1.894548756234E+01
  1.867765407279E+01  1.840065458894E+01  1.811474246140E+01  1.782019878063E+01
  1.751733229297E+01  1.720647917372E+01  1.688800265033E+01  1.656229246967E+01
  1.622976420430E+01  1.589085839356E+01  1.554603951652E+01  1.519579479506E+01
  1.484063282678E+01  1.448108204885E+01  1.411768903556E+01  1.375101663416E+01
  1.338164194494E+01  1.301015415390E+01  1.263715222766E+01  1.226324248255E+01
  1.188903604148E+01  1.151514619409E+01  1.114218567736E+01  1.077076389580E+01
  1.040148410140E+01  1.003494055548E+01  9.671715695147E+00  9.312377328649E+00
  8.957475883963E+00  8.607541735900E+00  8.263082636745E+00  7.924581275338E+00
  7.592492988862E+00  7.267243650629E+00  6.949227755792E+00  6.638806725229E+00
  6.336307445720E+00  6.042021062182E+00  5.756202034945E+00  5.479067472091E+00
  5.210796743622E+00  4.951531380817E+00  4.701375260603E+00  4.460395071182E+00
  4.228621051578E+00  4.006047994292E+00  3.792636496924E+00  3.588314445555E+00
  3.392978709892E+00  3.206497027770E+00  3.028710054643E+00  2.859433552169E+00
  2.698460689005E+00  2.545564426441E+00  2.400499961558E+00  2.263007201158E+00
  2.132813240765E+00  2.009634824466E+00  1.893180906095E+00  1.783155712732E+00
  1.679262045224E+00  1.581203254273E+00  1.488685097011E+00  1.401417457977E+00
  1.319115932105E+00  1.241503266274E+00  1.168310657621E+00  1.099278907994E+00
  1.034159434733E+00  9.727151383210E-01  9.147211274101E-01  8.599653014435E-01
  8.082487905174E-01  7.593862515180E-01  7.132060189684E-01  6.695501086198E-01
  6.282740717551E-01  5.892466985799E-01  5.523495700703E-01  5.174764593126E-01
  4.845320445002E-01  4.534284038637E-01  4.240804236087E-01  3.964058056143E-01
  3.703250107792E-01  3.457612360104E-01  3.226403863127E-01  3.008910423780E-01
  2.804444240643E-01  2.612343501393E-01  2.431971946485E-01  2.262718402557E-01
  2.103996288859E-01  1.955243099883E-01  1.815919867177E-01  1.685510603198E-01
  1.563521729894E-01  1.449481494536E-01  1.342939375199E-01  1.243465478098E-01
  1.150649928896E-01  1.064102259910E-01  9.834507950468E-02  9.083420341538E-02
  8.384400383664E-02  7.734258179039E-02  7.129967236757E-02  6.568658439511E-02
  6.047614072567E-02  5.564261925732E-02  5.116169478247E-02  4.701038175702E-02
  4.316697807342E-02  3.961100991408E-02  3.632317775441E-02  3.328530357844E-02
  3.048027936290E-02  2.789201687983E-02  2.550539886094E-02  2.330623156140E-02
  2.128119875418E-02  1.941781718063E-02  1.770439347683E-02  1.612998258992E-02
  1.468434769302E-02  1.335792160188E-02  1.214176969173E-02  1.102755430738E-02
  1.000750065544E-02  9.074364162875E-03  8.221399282026E-03  7.442329718561E-03
  6.731320055140E-03  6.082948740537E-03  5.492182411030E-03  4.954351508421E-03
  4.465127156847E-03  4.020499258736E-03  3.616755768779E-03  3.250463103611E-03
  2.918447644095E-03  2.617778286539E-03  2.345749998975E-03  2.099868338643E-03
  1.877834887117E-03  1.677533560055E-03  1.497017749240E-03  1.334498255531E-03
  1.188331972364E-03  1.057011280658E-03  9.391541172761E-04  8.334946805424E-04
  7.388747377686E-04  6.542355011975E-04  5.786100402522E-04  5.111161994620E-04
  4.509499928966E-04  3.973794473789E-04  3.497388681433E-04  3.074235019587E-04
  2.698845740342E-04  2.366246762748E-04  2.071934856360E-04  1.811837924598E-04
  1.582278197431E-04  1.379938153048E-04  1.201828997763E-04  1.045261542502E-04
  9.078193227730E-05  7.873338171860E-05  6.818616272568E-05  5.896634885674E-05
  5.091849902777E-05  4.390388866017E-05  3.779888901565E-05  3.249348431092E-05
  2.788991677899E-05  2.390145039454E-05  2.045124450770E-05  1.747132913596E-05
  1.490167414884E-05  1.268934504474E-05  1.078773846575E-05  9.155891023703E-06
  7.757855420907E-06  6.562138241189E-06  5.541194162467E-06  4.670971700446E-06
  3.930505935017E-06  3.301553996575E-06  2.768269398975E-06  2.316911599487E-06
  1.935587444220E-06  1.614021420224E-06  1.343351883229E-06  1.115950663118E-06
  9.252636680051E-07  7.656703127538E-07  6.323597891903E-07  5.212223737758E-07
  4.287541344079E-07  3.519735519556E-07  2.883487145411E-07  2.357338740313E-07
  1.923142752094E-07  1.565582792356E-07  1.271759047963E-07  1.030830033531E-07
  8.337036966447E-08  6.727716579714E-08  5.416810670235E-08  4.351391859682E-08
  3.487463836334E-08  2.788537343680E-08  2.224418762431E-08  1.770181945557E-08
  1.405297638129E-08  1.112898082341E-08  8.791573095098E-09  6.927701895214E-09
  5.445155760072E-09  4.268908823720E-09  3.338071770995E-09  2.603354220674E-09
  2.024958182321E-09  1.570833904182E-09  1.215239565897E-09  9.375550463630E-10
  7.213075744651E-10  5.533735936180E-10  4.233267704213E-10  3.229068700320E-10
  2.455883100509E-10  1.862306899746E-10  1.407964769058E-10  1.061239954737E-10
  7.974388253337E-11  5.973509671041E-11  4.460656555990E-11  3.320395975997E-11
  2.463690240783E-11  1.822092897659E-11  1.343154495009E-11  9.868135806742E-12
  7.225707937789E-12  5.272833562229E-12  3.834494513515E-12  2.778781425110E-12
  2.006616856602E-12  1.443842105310E-12  1.035145214687E-12  7.394180545208E-13
  5.262193987734E-13  3.730886894296E-13  2.635153839607E-13  1.854080246809E-13
  1.299449781926E-13  9.071485492775E-14  6.307605508838E-14  4.368143081693E-14
  3.012688031999E-14  2.069259393235E-14  1.415328958855E-14  9.639610084411E-15
  6.537305646830E-15  4.414206749539E-15  2.967550095972E-15  1.986147529378E-15
  1.323332803326E-15  8.777003417310E-16  5.794524512884E-16  3.807654196152E-16
  2.490218284424E-16  0.000000000000E+00  0.000000000000E+00  0.000000000000E+00
  0.000000000000E+00  0.000000000000E+00  0.000000000000E+00  0.000000000000E+00
  0.000000000000E+00  0.000000000000E+00  0.000000000000E+00  0.000000000000E+00
  0.000000000000E+00  0.000000000000E+00  0.000000000000E+00  0.000000000000E+00
  0.000000000000E+00  0.000000000000E+00  0.000000000000E+00  0.000000000000E+00
  0.000000000000E+00  0.000000000000E+00  0.000000000000E+00  0.000000000000E+00
  0.000000000000E+00  0.000000000000E+00  0.000000000000E+00  0.000000000000E+00
  0.000000000000E+00  0.000000000000E+00  0.000000000000E+00  0.000000000000E+00
  0.000000000000E+00  0.000000000000E+00  0.000000000000E+00  0.000000000000E+00
  0.000000000000E+00  0.000000000000E+00  0.000000000000E+00  0.000000000000E+00
  0.000000000000E+00  0.000000000000E+00  0.000000000000E+00  0.000000000000E+00
  0.000000000000E+00  0.000000000000E+00  0.000000000000E+00  0.000000000000E+00
  0.000000000000E+00  0.000000000000E+00  0.000000000000E+00  0.000000000000E+00
  0.000000000000E+00  0.000000000000E+00  0.000000000000E+00  0.000000000000E+00
  0.000000000000E+00  0.000000000000E+00  0.000000000000E+00  0.000000000000E+00
  0.000000000000E+00  0.000000000000E+00  0.000000000000E+00  0.000000000000E+00
  0.000000000000E+00  0.000000000000E+00  0.000000000000E+00  0.000000000000E+00
  0.000000000000E+00  0.000000000000E+00  0.000000000000E+00  0.000000000000E+00
  0.000000000000E+00  0.000000000000E+00  0.000000000000E+00  0.000000000000E+00
  0.000000000000E+00  0.000000000000E+00  0.000000000000E+00  0.000000000000E+00
  0.000000000000E+00
</data>
</radfunc>
</valence-charge>
<semilocal-potentials set="scalar_relativistic">
<slps n="2" l="s" rc="1.31204028561" eref="-1.33034381146">
<radfunc>
<data npts="256">
 -1.330077535155E+01 -1.330150207759E+01 -1.330363367056E+01 -1.330706051250E+01
 -1.331156753856E+01 -1.331706450604E+01 -1.332341626944E+01 -1.332987001759E+01
 -1.333618828660E+01 -1.334244440923E+01 -1.334824059363E+01 -1.335323697780E+01
 -1.335773448905E+01 -1.336091970486E+01 -1.336303943316E+01 -1.336370776293E+01
 -1.336302984123E+01 -1.336123231908E+01 -1.335813742586E+01 -1.335358162562E+01
 -1.334740718256E+01 -1.334120180505E+01 -1.333379388382E+01 -1.332511742704E+01
 -1.331511179846E+01 -1.330372164360E+01 -1.329089650744E+01 -1.328030799737E+01
 -1.326886796559E+01 -1.325655887692E+01 -1.324336357868E+01 -1.322926490079E+01
 -1.321424520071E+01 -1.319828584848E+01 -1.318136664420E+01 -1.316346515754E+01
 -1.314455597538E+01 -1.312460984022E+01 -1.311071972801E+01 -1.309634219161E+01
 -1.308146435659E+01 -1.306607181280E+01 -1.305014840747E+01 -1.303367601715E+01
 -1.301663429666E+01 -1.299900040354E+01 -1.298074869617E+01 -1.296185040470E+01
 -1.294227327373E+01 -1.292198117697E+01 -1.290093370448E+01 -1.287908572483E+01
 -1.285638692567E+01 -1.283278133863E+01 -1.280820685646E+01 -1.278259475371E+01
 -1.275586922509E+01 -1.272794695950E+01 -1.269873677144E+01 -1.266813931499E+01
 -1.263604690874E+01 -1.260234350194E+01 -1.256690481296E+01 -1.252959866905E+01
 -1.249028557231E+01 -1.244881950884E+01 -1.240504900706E+01 -1.238225107972E+01
 -1.235881843680E+01 -1.233473122336E+01 -1.230996952369E+01 -1.228451341716E+01
 -1.225834303528E+01 -1.223143861925E+01 -1.220378057744E+01 -1.217534954204E+01
 -1.214612642413E+01 -1.211609246656E+01 -1.208522929372E+01 -1.205351895788E+01
 -1.202094398111E+01 -1.198748739254E+01 -1.195313276033E+01 -1.191786421810E+01
 -1.188166648549E+01 -1.184452488277E+01 -1.180642533948E+01 -1.176735439721E+01
 -1.172729920671E+01 -1.168624751965E+01 -1.164418767554E+01 -1.160110858413E+01
 -1.155699970404E+01 -1.151185101809E+01 -1.146565300599E+01 -1.141839661509E+01
 -1.137007322970E+01 -1.132067463968E+01 -1.127019300879E+01 -1.121862084332E+01
 -1.116595096145E+01 -1.111217646374E+01 -1.105729070493E+01 -1.100128726752E+01
 -1.094415993711E+01 -1.088590267973E+01 -1.082650962134E+01 -1.076597502947E+01
 -1.070429329719E+01 -1.064145892949E+01 -1.057746653236E+01 -1.051231080458E+01
 -1.044598653287E+01 -1.037848859060E+01 -1.030981194091E+01 -1.023995164480E+01
 -1.016890287543E+01 -1.009666093967E+01 -1.002322130845E+01 -9.948579657633E+00
 -9.872731921509E+00 -9.795674361139E+00 -9.717403650315E+00 -9.637916982097E+00
 -9.557212199264E+00 -9.475287952379E+00 -9.392143889460E+00 -9.307780881583E+00
 -9.222201289048E+00 -9.135409272948E+00 -9.047411157224E+00 -8.958215846382E+00
 -8.867835304081E+00 -8.776285097756E+00 -8.683585014159E+00 -8.589759750343E+00
 -8.494839683964E+00 -8.398861725934E+00 -8.301870257261E+00 -8.203918150404E+00
 -8.105067873574E+00 -8.005392674028E+00 -7.904977833590E+00 -7.803921986277E+00
 -7.702338484036E+00 -7.600356792204E+00 -7.498123891430E+00 -7.395805657589E+00
 -7.293588185642E+00 -7.191679017899E+00 -7.090308231704E+00 -6.989729336731E+00
 -6.890219928072E+00 -6.792082038671E+00 -6.695642133831E+00 -6.601250692019E+00
 -6.509281320546E+00 -6.420129362333E+00 -6.334209971225E+00 -6.251955511110E+00
 -6.173812382370E+00 -6.100239666623E+00 -6.029450359414E+00 -5.959235895604E+00
 -5.889627991689E+00 -5.820619542062E+00 -5.752206812574E+00 -5.684388393675E+00
 -5.617165554106E+00 -5.550542494200E+00 -5.484526585845E+00 -5.419128565895E+00
 -5.354362646833E+00 -5.290246501495E+00 -5.226801073576E+00 -5.164050163331E+00
 -5.102019740128E+00 -5.040736942470E+00 -4.980228744485E+00 -4.920520298429E+00
 -4.861632927292E+00 -4.803582925738E+00 -4.746380139744E+00 -4.690008706977E+00
 -4.634392790269E+00 -4.579445500986E+00 -4.525142452836E+00 -4.471484141913E+00
 -4.418462040640E+00 -4.366068683902E+00 -4.314296609443E+00 -4.263138449034E+00
 -4.212586921871E+00 -4.162634833550E+00 -4.113275075043E+00 -4.064500621694E+00
 -4.016304532227E+00 -3.968679947758E+00 -3.921620090829E+00 -3.875118264435E+00
 -3.829167851089E+00 -3.783762311876E+00 -3.738895185511E+00 -3.694560087435E+00
 -3.650750708894E+00 -3.607460816040E+00 -3.564684249036E+00 -3.522414921179E+00
 -3.480646818016E+00 -3.439373996488E+00 -3.398590584067E+00 -3.358290777916E+00
 -3.318468844042E+00 -3.279119116478E+00 -3.240235996455E+00 -3.201813951598E+00
 -3.163847515123E+00 -3.126331285051E+00 -3.089259923423E+00 -3.052628155530E+00
 -3.016430769159E+00 -2.980662613832E+00 -2.945318600078E+00 -2.910393698692E+00
 -2.875882940023E+00 -2.841781413260E+00 -2.808084265733E+00 -2.774786702227E+00
 -2.741883984294E+00 -2.709371429590E+00 -2.677244411211E+00 -2.645498357042E+00
 -2.614128749112E+00 -2.583131122965E+00 -2.552501067028E+00 -2.522234222000E+00
 -2.492326280237E+00 -2.462772985153E+00 -2.433570130626E+00 -2.404713560405E+00
 -2.376199167536E+00 -2.348022893780E+00 -2.320180729049E+00 -2.292668710839E+00
 -2.265482923676E+00 -2.238619498562E+00 -2.212074612429E+00 -2.185844487597E+00
 -2.159925391241E+00 -2.134313634857E+00 -2.109005573735E+00 -2.083997606446E+00
 -2.059286174320E+00 -2.034867760939E+00 -2.010738891633E+00 -1.986896132982E+00
</data>
</radfunc>
</slps>
<slps n="2" l="p" rc="1.70576203900" eref="-0.487689514268">
<radfunc>
<data npts="256">
 -1.861324092266E+01 -1.861379623617E+01 -1.861541539906E+01 -1.861798726156E+01
 -1.862130542701E+01 -1.862523890867E+01 -1.862959759845E+01 -1.863376850826E+01
 -1.863751920496E+01 -1.864078010351E+01 -1.864319882159E+01 -1.864452251549E+01
 -1.864457910805E+01 -1.864312357870E+01 -1.863976534945E+01 -1.863495912244E+01
 -1.862797249331E+01 -1.862019039069E+01 -1.861036228451E+01 -1.859823229202E+01
 -1.858353927135E+01 -1.856976176610E+01 -1.855403804772E+01 -1.853623057470E+01
 -1.851620056404E+01 -1.849380736178E+01 -1.846890746669E+01 -1.844849889625E+01
 -1.842653300032E+01 -1.840294311135E+01 -1.837765973428E+01 -1.835060996146E+01
 -1.832171682387E+01 -1.829089857318E+01 -1.825806788674E+01 -1.822313098392E+01
 -1.818598663909E+01 -1.814652507259E+01 -1.811887140610E+01 -1.809009680183E+01
 -1.806016069382E+01 -1.802901986413E+01 -1.799662819313E+01 -1.796293638622E+01
 -1.792789167495E+01 -1.789143749045E+01 -1.785351310728E+01 -1.781405325597E+01
 -1.777298770317E+01 -1.773024079861E+01 -1.768573098917E+01 -1.763937030148E+01
 -1.759106379596E+01 -1.754070899716E+01 -1.748819530769E+01 -1.743340341577E+01
 -1.737620470978E+01 -1.731646071676E+01 -1.725402258527E+01 -1.718873063723E+01
 -1.712041401570E+01 -1.704889045855E+01 -1.697396622805E+01 -1.689543622542E+01
 -1.681308431501E+01 -1.672668387600E+01 -1.663599858861E+01 -1.658897287012E+01
 -1.654078344885E+01 -1.649139854286E+01 -1.644078598966E+01 -1.638891329278E+01
 -1.633574766956E+01 -1.628125609970E+01 -1.622540537395E+01 -1.616816214228E+01
 -1.610949296098E+01 -1.604936433803E+01 -1.598774277623E+01 -1.592459481353E+01
 -1.585988706015E+01 -1.579358623210E+01 -1.572565918088E+01 -1.565607291925E+01
 -1.558479464296E+01 -1.551179174878E+01 -1.543703184889E+01 -1.536048278222E+01
 -1.528211262329E+01 -1.520188968916E+01 -1.511978254548E+01 -1.503576001248E+01
 -1.494979117193E+01 -1.486184537636E+01 -1.477189226153E+01 -1.467990176356E+01
 -1.458584414186E+01 -1.448969000932E+01 -1.439141037081E+01 -1.429097667151E+01
 -1.418836085615E+01 -1.408353544054E+01 -1.397647359642E+01 -1.386714925104E+01
 -1.375553720238E+01 -1.364161325139E+01 -1.352535435218E+01 -1.340673878146E+01
 -1.328574632826E+01 -1.316235850511E+01 -1.303655878193E+01 -1.290833284384E+01
 -1.277766887404E+01 -1.264455786332E+01 -1.250899394738E+01 -1.237097477332E+01
 -1.223050189703E+01 -1.208758121259E+01 -1.194222341538E+01 -1.179444450014E+01
 -1.164426629544E+01 -1.149171703569E+01 -1.133683197162E+01 -1.117965402009E+01
 -1.102023445341E+01 -1.085863362815E+01 -1.069492175264E+01 -1.052917969156E+01
 -1.036149980531E+01 -1.019198682044E+01 -1.002075872627E+01 -9.847947691154E+00
 -9.673700990003E+00 -9.498181932510E+00 -9.321570779161E+00 -9.144065629256E+00
 -8.965883262117E+00 -8.787259909277E+00 -8.608451931720E+00 -8.429736372288E+00
 -8.251411349258E+00 -8.073796252801E+00 -7.897231701861E+00 -7.722079214965E+00
 -7.548720544924E+00 -7.377556624473E+00 -7.209006068122E+00 -7.043503175034E+00
 -6.881495379215E+00 -6.723440097063E+00 -6.569800928878E+00 -6.421043180728E+00
 -6.277628686490E+00 -6.140009927219E+00 -6.008623466278E+00 -5.883882743860E+00
 -5.766170303082E+00 -5.655829551078E+00 -5.553156201158E+00 -5.458389437278E+00
 -5.371703101871E+00 -5.293199499131E+00 -5.222906823619E+00 -5.160767292962E+00
 -5.106620959711E+00 -5.060204563914E+00 -5.021152542315E+00 -4.988993911660E+00
 -4.963152338094E+00 -4.942947998286E+00 -4.927601376692E+00 -4.916238974205E+00
 -4.907900856772E+00 -4.901549931879E+00 -4.896082817006E+00 -4.890342162561E+00
 -4.883130317804E+00 -4.873224286571E+00 -4.859392013868E+00 -4.840410176465E+00
 -4.815083739401E+00 -4.782268865354E+00 -4.740898724658E+00 -4.689995308211E+00
 -4.634392790269E+00 -4.579445500986E+00 -4.525142452836E+00 -4.471484141913E+00
 -4.418462040640E+00 -4.366068683902E+00 -4.314296609443E+00 -4.263138449034E+00
 -4.212586921871E+00 -4.162634833550E+00 -4.113275075043E+00 -4.064500621694E+00
 -4.016304532227E+00 -3.968679947758E+00 -3.921620090829E+00 -3.875118264435E+00