<?xml version="1.0" encoding="UTF-8" ?>
<psml version="1.1" energy_unit="hartree" length_unit="bohr"
 uuid="99e4c810-1d65-11e8-5512-32a6ff9f56e9"
 xmlns="http://esl.cecam.org/PSML/ns/1.1">
<provenance creator="ONCVPSP-3.3.0+psml-3.3.0-73 (scalar-relativistic)"
 date="2018-03-01">
<annotation action="semilocal-pseudopotential-generation"
 action-cont="projectors-generation" />
<input-file name="oncvpsp-input">
<![CDATA[# atsym z nc nv iexc psfile
Kr 36 6 2 -116133 upf
# n l f
1 0 2.0
2 0 2.0
2 1 6.0
3 0 2.0
3 1 6.0
3 2 10.0
4 0 2.0
4 1 6.0
# lmax
2
# l rc ep ncon nbas qcut
0 1.75 0.0 4 8 6.1
1 1.5 0.0 4 7 7.0
2 1.8 0.1 4 7 7.6
# lloc lpopt rc5 dvloc0
4 5 1.5 0.0
# l nproj debl
0 2 3.0
1 2 3.0
2 2 4.0
# icmod fcfact
3 7.0 1.24
# epsh1 epsh2 depsh
-12.0 12.0 0.02
# rlmax drl
6.0 0.01
 0
]]>
</input-file>
</provenance>
<pseudo-atom-spec atomic-label="Kr" atomic-number="36" z-pseudo="8"
 flavor="Hamann&apos;s oncvpsp" relativity="scalar" spin-dft="no"
 core-corrections="yes">
<annotation pseudo-energy="-18.5440855601" />
<exchange-correlation>
<annotation oncvpsp-xc-code="-116133" oncvpsp-xc-type="libxc-interface" />
<libxc-info number-of-functionals="2">
<functional name="Perdew, Burke &amp; Ernzerhof SOL (GGA)" type="exchange"
 id="116" />
<functional name="Perdew, Burke &amp; Ernzerhof SOL (GGA)" type="correlation"
 id="133" />
</libxc-info>
</exchange-correlation>
<valence-configuration total-valence-charge="8">
<shell n="4" l="s" occupation="2" />
<shell n="4" l="p" occupation="6" />
</valence-configuration>
</pseudo-atom-spec>
<grid npts="457">
<annotation type="sampled from oncvpsp log grid"
 recipe="r(i:1..N) = r1*exp(a*(i-1)) + r=0; resampled"
 recipe-cont="r1: scale; a: step" scale="0.138888888889E-04"
 step="0.119285708653E-01" delta="0.500000000000E-02" rmax="44.0768648367" />
<grid-data>
  0.000000000000E+00  5.033159350498E-03  1.005334081446E-02  1.508161433186E-02
  2.032172843085E-02  2.549120590227E-02  3.085166315597E-02  3.602676308192E-02
  4.107815044163E-02  4.628241435380E-02  5.152768351151E-02  5.668716249522E-02
  6.236326131450E-02  6.779417908512E-02  7.282415956102E-02  7.822733879719E-02
  8.403140622808E-02  8.919575662272E-02  9.467749448230E-02  1.004961256101E-01
  1.066723545851E-01  1.118855320508E-01  1.173534823618E-01  1.230886565046E-01
  1.291041139573E-01  1.354135524264E-01  1.420313390386E-01  1.472060702126E-01
  1.525693361347E-01  1.581280058285E-01  1.638891985821E-01  1.698602930653E-01
  1.760489367809E-01  1.824630558582E-01  1.891108652054E-01  1.960008790302E-01
  2.031419217445E-01  2.105431392668E-01  2.156264928212E-01  2.208325788639E-01
  2.261643606480E-01  2.316248729715E-01  2.372172239045E-01  2.429445965584E-01
  2.488102508977E-01  2.548175255954E-01  2.609698399334E-01  2.672706957487E-01
  2.737236794269E-01  2.803324639430E-01  2.871008109524E-01  2.940325729321E-01
  3.011316953729E-01  3.084022190260E-01  3.158482822022E-01  3.234741231277E-01
  3.312840823565E-01  3.392826052409E-01  3.474742444618E-01  3.558636626201E-01
  3.644556348904E-01  3.732550517392E-01  3.822669217084E-01  3.914963742661E-01
  4.009486627264E-01  4.106291672393E-01  4.205433978531E-01  4.255899186273E-01
  4.306969976508E-01  4.358653616227E-01  4.410957459621E-01  4.463888949137E-01
  4.517455616526E-01  4.571665083925E-01  4.626525064932E-01  4.682043365711E-01
  4.738227886099E-01  4.795086620733E-01  4.852627660181E-01  4.910859192104E-01
  4.969789502409E-01  5.029426976438E-01  5.089780100155E-01  5.150857461357E-01
  5.212667750893E-01  5.275219763904E-01  5.338522401071E-01  5.402584669884E-01
  5.467415685922E-01  5.533024674153E-01  5.599420970243E-01  5.666614021886E-01
  5.734613390149E-01  5.803428750830E-01  5.873069895840E-01  5.943546734590E-01
  6.014869295406E-01  6.087047726950E-01  6.160092299674E-01  6.234013407270E-01
  6.308821568157E-01  6.384527426975E-01  6.461141756099E-01  6.538675457172E-01
  6.617139562658E-01  6.696545237410E-01  6.776903780259E-01  6.858226625622E-01
  6.940525345129E-01  7.023811649271E-01  7.108097389062E-01  7.193394557731E-01
  7.279715292424E-01  7.367071875933E-01  7.455476738444E-01  7.544942459305E-01
  7.635481768817E-01  7.727107550043E-01  7.819832840643E-01  7.913670834731E-01
  8.008634884748E-01  8.104738503365E-01  8.201995365405E-01  8.300419309790E-01
  8.400024341508E-01  8.500824633606E-01  8.602834529209E-01  8.706068543559E-01
  8.810541366082E-01  8.916267862475E-01  9.023263076825E-01  9.131542233747E-01
  9.241120740552E-01  9.352014189438E-01  9.464238359711E-01  9.577809220028E-01
  9.692742930668E-01  9.809055845836E-01  9.926764515986E-01  1.004588569018E+00
  1.016643631846E+00  1.028843355428E+00  1.041189475693E+00  1.053683749402E+00
  1.066327954394E+00  1.079123889847E+00  1.092073376525E+00  1.105178257044E+00
  1.118440396128E+00  1.131861680882E+00  1.145444021052E+00  1.159189349305E+00
  1.173099621497E+00  1.187176816955E+00  1.201422938758E+00  1.215840014023E+00
  1.230430094191E+00  1.245195255322E+00  1.260137598386E+00  1.275259249566E+00
  1.290562360561E+00  1.306049108888E+00  1.321721698194E+00  1.337582358573E+00
  1.353633346876E+00  1.369876947038E+00  1.386315470403E+00  1.402951256047E+00
  1.419786671120E+00  1.436824111173E+00  1.454066000507E+00  1.471514792514E+00
  1.489172970024E+00  1.507043045664E+00  1.525127562212E+00  1.543429092958E+00
  1.561950242074E+00  1.580693644979E+00  1.599661968719E+00  1.618857912343E+00
  1.638284207291E+00  1.657943617779E+00  1.677838941192E+00  1.697973008487E+00
  1.718348684588E+00  1.738968868803E+00  1.759836495229E+00  1.780954533172E+00
  1.802325987570E+00  1.823953899421E+00  1.845841346214E+00  1.867991442368E+00
  1.890407339677E+00  1.913092227753E+00  1.936049334486E+00  1.959281926500E+00
  1.982793309618E+00  2.006586829333E+00  2.030665871285E+00  2.055033861741E+00
  2.079694268081E+00  2.104650599298E+00  2.129906406490E+00  2.155465283368E+00
  2.181330866768E+00  2.207506837170E+00  2.233996919216E+00  2.260804882246E+00
  2.287934540833E+00  2.315389755323E+00  2.343174432387E+00  2.371292525576E+00
  2.399748035883E+00  2.428545012313E+00  2.457687552461E+00  2.487179803090E+00
  2.517025960727E+00  2.547230272256E+00  2.577797035523E+00  2.608730599950E+00
  2.640035367149E+00  2.671715791555E+00  2.703776381053E+00  2.736221697626E+00
  2.769056357998E+00  2.802285034294E+00  2.835912454705E+00  2.869943404162E+00
  2.904382725011E+00  2.939235317712E+00  2.974506141524E+00  3.010200215222E+00
  3.046322617805E+00  3.082878489219E+00  3.119873031089E+00  3.157311507462E+00
  3.195199245552E+00  3.233541636499E+00  3.272344136137E+00  3.311612265770E+00
  3.351351612959E+00  3.391567832315E+00  3.432266646303E+00  3.473453846058E+00
  3.515135292211E+00  3.557316915718E+00  3.600004718706E+00  3.643204775331E+00
  3.686923232635E+00  3.731166311426E+00  3.775940307163E+00  3.821251590849E+00
  3.867106609940E+00  3.913511889259E+00  3.960474031930E+00  4.007999720313E+00
  4.056095716957E+00  4.104768865560E+00  4.154026091947E+00  4.203874405050E+00
  4.254320897911E+00  4.305372748686E+00  4.357037221670E+00  4.409321668330E+00
  4.462233528350E+00  4.515780330690E+00  4.569969694659E+00  4.624809330995E+00
  4.680307042967E+00  4.736470727482E+00  4.793308376212E+00  4.850828076726E+00
  4.909038013647E+00  4.967946469811E+00  5.027561827449E+00  5.087892569378E+00
  5.148947280211E+00  5.210734647573E+00  5.273263463344E+00  5.336542624904E+00
  5.400581136403E+00  5.465388110040E+00  5.530972767360E+00  5.597344440569E+00
  5.664512573855E+00  5.732486724742E+00  5.801276565439E+00  5.870891884224E+00
  5.941342586835E+00  6.012638697877E+00  6.084790362251E+00  6.157807846598E+00
  6.231701540757E+00  6.306481959246E+00  6.382159742757E+00  6.458745659670E+00
  6.536250607586E+00  6.614685614878E+00  6.694061842256E+00  6.774390584363E+00
  6.855683271375E+00  6.937951470632E+00  7.021206888280E+00  7.105461370939E+00
  7.190726907390E+00  7.277015630279E+00  7.364339817842E+00  7.452711895656E+00
  7.542144438404E+00  7.632650171665E+00  7.724241973725E+00  7.816932877410E+00
  7.910736071939E+00  8.005664904802E+00  8.101732883660E+00  8.198953678263E+00
  8.297341122403E+00  8.396909215871E+00  8.497672126462E+00  8.599644191979E+00
  8.702839922283E+00  8.807274001351E+00  8.912961289367E+00  9.019916824839E+00
  9.128155826737E+00  9.237693696658E+00  9.348546021018E+00  9.460728573270E+00
  9.574257316149E+00  9.689148403943E+00  9.805418184791E+00  9.923083203008E+00
  1.004216020144E+01  1.016266612386E+01  1.028461811735E+01  1.040803353476E+01
  1.053292993717E+01  1.065932509642E+01  1.078723699758E+01  1.091668384155E+01
  1.104768404765E+01  1.118025625622E+01  1.131441933129E+01  1.145019236327E+01
  1.158759467163E+01  1.172664580769E+01  1.186736555738E+01  1.200977394407E+01
  1.215389123140E+01  1.229973792617E+01  1.244733478129E+01  1.259670279866E+01
  1.274786323225E+01  1.290083759103E+01  1.305564764213E+01  1.321231541383E+01
  1.337086319880E+01  1.353131355718E+01  1.369368931987E+01  1.385801359171E+01
  1.402430975481E+01  1.419260147187E+01  1.436291268953E+01  1.453526764180E+01
  1.470969085350E+01  1.488620714375E+01  1.506484162947E+01  1.524561972902E+01
  1.542856716577E+01  1.561370997176E+01  1.580107449142E+01  1.599068738532E+01
  1.618257563394E+01  1.637676654155E+01  1.657328774005E+01  1.677216719293E+01
  1.697343319925E+01  1.717711439764E+01  1.738323977041E+01  1.759183864765E+01
  1.780294071142E+01  1.801657599996E+01  1.823277491196E+01  1.845156821091E+01
  1.867298702944E+01  1.889706287379E+01  1.912382762827E+01  1.935331355981E+01
  1.958555332253E+01  1.982057996240E+01  2.005842692195E+01  2.029912804501E+01
  2.054271758155E+01  2.078923019253E+01  2.103870095484E+01  2.129116536630E+01
  2.154665935070E+01  2.180521926291E+01  2.206688189406E+01  2.233168447679E+01
  2.259966469051E+01  2.287086066680E+01  2.314531099480E+01  2.342305472674E+01
  2.370413138346E+01  2.398858096006E+01  2.427644393158E+01  2.456776125876E+01
  2.486257439386E+01  2.516092528659E+01  2.546285639003E+01  2.576841066671E+01
  2.607763159471E+01  2.639056317385E+01  2.670724993193E+01  2.702773693112E+01
  2.735206977429E+01  2.768029461158E+01  2.801245814692E+01  2.834860764468E+01
  2.868879093642E+01  2.903305642766E+01  2.938145310479E+01  2.973403054204E+01
  3.009083890855E+01  3.045192897545E+01  3.081735212316E+01  3.118716034863E+01
  3.156140627282E+01  3.194014314809E+01  3.232342486587E+01  3.271130596426E+01
  3.310384163583E+01  3.350108773546E+01  3.390310078829E+01  3.430993799775E+01
  3.472165725372E+01  3.513831714076E+01  3.555997694645E+01  3.598669666981E+01
  3.641853702985E+01  3.685555947421E+01  3.729782618790E+01  3.774540010215E+01
  3.819834490338E+01  3.865672504222E+01  3.912060574272E+01  3.959005301164E+01
  4.006513364778E+01  4.054591525155E+01  4.103246623457E+01  4.152485582938E+01
  4.202315409934E+01  4.252743194853E+01  4.303776113191E+01  4.355421426549E+01
  4.407686483668E+01
</grid-data>
</grid>
<valence-charge total-charge="8" is-unscreening-charge="yes"
 rescaled-to-z-pseudo="no">
<radfunc>
<data npts="457">
  1.727931365403E-02  1.732161880232E-02  1.744815971645E-02  1.765952924730E-02
  1.797025766473E-02  1.836773233292E-02  1.887593031857E-02  1.946009532292E-02
  2.011977873456E-02  2.089289261005E-02  2.176926073254E-02  2.272775587843E-02
  2.389442923730E-02  2.512258982596E-02  2.635939814639E-02  2.779632798315E-02
  2.946737452728E-02  3.106758288733E-02  3.288544372558E-02  3.495246957811E-02
  3.730519115798E-02  3.942136787523E-02  4.177231808033E-02  4.438620994505E-02
  4.729496226624E-02  5.053479921661E-02  5.414689295550E-02  5.712821112087E-02
  6.036729692375E-02  6.388859891590E-02  6.771912669171E-02  7.188873884353E-02
  7.643046336659E-02  8.138085370589E-02  8.678038378655E-02  9.267388547117E-02
  9.911103191993E-02  1.061468702642E-01  1.111998981565E-01  1.165656670405E-01
  1.222652475980E-01  1.283211995409E-01  1.347576726161E-01  1.416005128107E-01
  1.488773736847E-01  1.566178326723E-01  1.648535120979E-01  1.736182045303E-01
  1.829480019612E-01  1.928814281237E-01  2.034595730788E-01  2.147262289633E-01
  2.267280255394E-01  2.395145638774E-01  2.531385461646E-01  2.676558992366E-01
  2.831258889876E-01  2.996112223149E-01  3.171781326959E-01  3.358964448789E-01
  3.558396134841E-01  3.770847295659E-01  3.997124883794E-01  4.238071107195E-01
  4.494562092825E-01  4.767505905228E-01  5.057839814792E-01  5.209828073398E-01
  5.366526700220E-01  5.528059303941E-01  5.694550459656E-01  5.866125501649E-01
  6.042910295156E-01  6.225030985911E-01  6.412613726257E-01  6.605784376555E-01
  6.804668180655E-01  7.009389414137E-01  7.220071004061E-01  7.436834118959E-01
  7.659797727816E-01  7.889078126808E-01  8.124788432614E-01  8.367038041136E-01
  8.615932050561E-01  8.871570647728E-01  9.134048456884E-01  9.403453850002E-01
  9.679868217965E-01  9.963365202051E-01  1.025400988534E+00  1.055185794381E+00
  1.085695475715E+00  1.116933447954E+00  1.148901907081E+00  1.181601728889E+00
  1.215032364457E+00  1.249191732003E+00  1.284076105308E+00  1.319679998918E+00
  1.355996050408E+00  1.393014900026E+00  1.430725068079E+00  1.469112830487E+00
  1.508162092997E+00  1.547854264590E+00  1.588168130703E+00  1.629079726936E+00
  1.670562213999E+00  1.712585754722E+00  1.755117394027E+00  1.798120942853E+00
  1.841556867069E+00  1.885382182547E+00  1.929550357589E+00  1.974011224030E+00
  2.018710898388E+00  2.063591714533E+00  2.108592169392E+00  2.153646883310E+00
  2.198686576724E+00  2.243638064878E+00  2.288424272329E+00  2.332964269078E+00
  2.377173330115E+00  2.420963020226E+00  2.464241305875E+00  2.506912695935E+00
  2.548878413000E+00  2.590036596917E+00  2.630282542060E+00  2.669508969747E+00
  2.707606336979E+00  2.744463182519E+00  2.779966511012E+00  2.814002215604E+00
  2.846455539115E+00  2.877211573497E+00  2.906155796796E+00  2.933174646431E+00
  2.958156126998E+00  2.980990450298E+00  3.001570704633E+00  3.019793549784E+00
  3.035559933410E+00  3.048775823902E+00  3.059352954035E+00  3.067209569054E+00
  3.072271172145E+00  3.074471259606E+00  3.073752037431E+00  3.070065110499E+00
  3.063372135156E+00  3.053645425633E+00  3.040868504625E+00  3.025036588308E+00
  3.006156996297E+00  2.984249477385E+00  2.959346442561E+00  2.931493097608E+00
  2.900747468679E+00  2.867180315567E+00  2.830874928959E+00  2.791926809712E+00
  2.750443230213E+00  2.706542679990E+00  2.660354200040E+00  2.612016612660E+00
  2.561677655939E+00  2.509493034325E+00  2.455625398877E+00  2.400243272692E+00
  2.343519938687E+00  2.285632308108E+00  2.226759498915E+00  2.167080227361E+00
  2.106769597771E+00  2.045997818367E+00  1.984929786815E+00  1.923724096008E+00
  1.862532349673E+00  1.801498517986E+00  1.740758386535E+00  1.680439103201E+00
  1.620658830004E+00  1.561526505343E+00  1.503141720010E+00  1.445594848832E+00
  1.388967863713E+00  1.333335507636E+00  1.278765601686E+00  1.225318987145E+00
  1.173049785030E+00  1.122005569088E+00  1.072227575065E+00  1.023750924924E+00
  9.766048653776E-01  9.308130183214E-01  8.863936413001E-01  8.433598955813E-01
  8.017201199945E-01  7.614781085999E-01  7.226333904007E-01  6.851815094218E-01
  6.491143036052E-01  6.144201810898E-01  5.810843925720E-01  5.490892985626E-01
  5.184146304849E-01  4.890377446736E-01  4.609338684577E-01  4.340763376425E-01
  4.084368246810E-01  3.839855572885E-01  3.606915268607E-01  3.385226865270E-01
  3.174461386116E-01  2.974283113754E-01  2.784351249949E-01  2.604321468012E-01
  2.433847358684E-01  2.272581770990E-01  2.120178050055E-01  1.976291174367E-01
  1.840578795356E-01  1.712702182540E-01  1.592327077778E-01  1.479124462427E-01
  1.372771241401E-01  1.272950848273E-01  1.179353775659E-01  1.091678035186E-01
  1.009629551331E-01  9.329224933939E-02  8.612795497743E-02  7.944321486174E-02
  7.321206287276E-02  6.740943644891E-02  6.201118483273E-02  5.699407340435E-02
  5.233578441403E-02  4.801491440485E-02  4.401096859628E-02  4.030435248104E-02
  3.687636087072E-02  3.370916461116E-02  3.078579517601E-02  2.809012733727E-02
  2.560686010295E-02  2.332149610622E-02  2.122031962538E-02  1.929037340992E-02
  1.751943448496E-02  1.589598910293E-02  1.440920700796E-02  1.304891517473E-02
  1.180557117845E-02  1.067023634756E-02  9.634548843451E-03  8.690696804603E-03
  7.831391683318E-03  7.049841894268E-03  6.339726883693E-03  5.695171717470E-03
  5.110722275245E-03  4.581321126546E-03  4.102284153580E-03  3.669277974316E-03
  3.278298208703E-03  2.925648620552E-03  2.607921157836E-03  2.321976905133E-03
  2.064927953523E-03  1.834120185751E-03  1.627116967740E-03  1.441683731643E-03
  1.275773430654E-03  1.127512841571E-03  9.951896877524E-04  8.772405524643E-04
  7.722395507055E-04  6.788877263069E-04  5.960031403828E-04  5.225116169827E-04
  4.574381119867E-04  3.998986718156E-04  3.490929493332E-04  3.042972453311E-04
  2.648580451463E-04  2.301860212156E-04  1.997504736857E-04  1.730741825225E-04
  1.497286458817E-04  1.293296807910E-04  1.115333634331E-04  9.603228750847E-05
  8.255212028175E-05  7.084843698294E-05  6.070381524223E-05  5.192517218779E-05
  4.434132773529E-05  3.780077845020E-05  3.216966717462E-05  2.732993438353E-05
  2.317763797669E-05  1.962142892417E-05  1.658117087043E-05  1.398669246527E-05
  1.177666183232E-05  9.897573208244E-06  8.302836389172E-06  6.951960205206E-06
  5.809821809718E-06  4.846014116582E-06  4.034264245663E-06  3.351916343950E-06
  2.779472636237E-06  2.300187024709E-06  1.899706000639E-06  1.565752053407E-06
  1.287845161785E-06  1.057058329982E-06  8.658034861120E-07  7.076443939020E-07
  5.771335397142E-07  4.696702468834E-07  3.813775384061E-07  3.089955178666E-07
  2.497892678586E-07  2.014694758767E-07  1.621241905760E-07  1.301602873495E-07
  1.042533823023E-07  8.330507886250E-08  6.640656244931E-08  5.280767676950E-08
  4.189072140004E-08  3.314830525944E-08  2.616467527833E-08  2.060001491631E-08
  1.617727396408E-08  1.267115010167E-08  9.898894694723E-09  7.712660993458E-09
  5.993152898936E-09  4.644367376756E-09  3.589253981196E-09  2.766141309272E-09
  2.125802996926E-09  1.629055518920E-09  1.244796940725E-09  9.484102376434E-10
  7.204671514582E-10  5.456790729914E-10  4.120503648380E-10  3.101970891308E-10
  2.328004718854E-10  1.741697866319E-10  1.298938230456E-10  9.656384973324E-11
  7.155409594084E-11  5.284836143024E-11  3.890350052147E-11  2.854228692816E-11
  2.086961181657E-11  1.520715072711E-11  1.104259996388E-11  7.990367297488E-12
  5.761236947703E-12  4.139041345632E-12  2.962784299735E-12  2.112990379465E-12
  1.501318907761E-12  1.062690581526E-12  7.493408387518E-13  5.263452052285E-13
  3.682649579029E-13  2.566422081133E-13  1.781365299373E-13  1.231442419254E-13
  8.477937079600E-14  5.812456389537E-14  3.968266970987E-14  2.697687657847E-14
  1.826037693208E-14  1.230644206672E-14  8.257282072116E-15  5.515697259721E-15
  3.667743676997E-15  2.427778700486E-15  1.599582942722E-15  1.048981135440E-15
  6.846478244335E-16  4.447136997140E-16  2.874632027361E-16  1.849042508737E-16
  1.183446011402E-16  7.536341033229E-17  4.774812351105E-17  3.009596645467E-17
  1.887071172798E-17  1.176974617996E-17  7.301529225085E-18  0.000000000000E+00
  0.000000000000E+00  0.000000000000E+00  0.000000000000E+00  0.000000000000E+00
  0.000000000000E+00  0.000000000000E+00  0.000000000000E+00  0.000000000000E+00
  0.000000000000E+00  0.000000000000E+00  0.000000000000E+00  0.000000000000E+00
  0.000000000000E+00  0.000000000000E+00  0.000000000000E+00  0.000000000000E+00
  0.000000000000E+00  0.000000000000E+00  0.000000000000E+00  0.000000000000E+00
  0.000000000000E+00  0.000000000000E+00  0.000000000000E+00  0.000000000000E+00
  0.000000000000E+00  0.000000000000E+00  0.000000000000E+00  0.000000000000E+00
  0.000000000000E+00  0.000000000000E+00  0.000000000000E+00  0.000000000000E+00
  0.000000000000E+00  0.000000000000E+00  0.000000000000E+00  0.000000000000E+00
  0.000000000000E+00  0.000000000000E+00  0.000000000000E+00  0.000000000000E+00
  0.000000000000E+00  0.000000000000E+00  0.000000000000E+00  0.000000000000E+00
  0.000000000000E+00  0.000000000000E+00  0.000000000000E+00  0.000000000000E+00
  0.000000000000E+00  0.000000000000E+00  0.000000000000E+00  0.000000000000E+00
  0.000000000000E+00
</data>
</radfunc>
</valence-charge>
<pseudocore-charge matching-radius="1.05368374940"
 number-of-continuous-derivatives="4">
<annotation model-charge-form="Teter function with specified parameters" />
<radfunc>
<data npts="290">
  2.240207923937E+01  2.240102894556E+01  2.239788916479E+01  2.239265059967E+01
  2.238496313797E+01  2.237515303078E+01  2.236264822409E+01  2.234832644314E+01
  2.233221968660E+01  2.231343204062E+01  2.229224916939E+01  2.226921764275E+01
  2.224137269990E+01  2.221227979384E+01  2.218320473153E+01  2.214969946065E+01
  2.211109679712E+01  2.207448536087E+01  2.203330356590E+01  2.198699056709E+01
  2.193491930279E+01  2.188864833531E+01  2.183784982845E+01  2.178209237992E+01
  2.172090591902E+01  2.165377875876E+01  2.158015453792E+01  2.152031111292E+01
  2.145620071692E+01  2.138753287852E+01  2.131399947010E+01  2.123527396824E+01
  2.115101074014E+01  2.106084436903E+01  2.096438903363E+01  2.086123795928E+01
  2.075096296133E+01  2.063311410457E+01  2.055010837728E+01  2.046338197032E+01
  2.037278531215E+01  2.027816454662E+01  2.017936159595E+01  2.007621424977E+01
  1.996855628297E+01  1.985621760544E+01  1.973902444727E+01  1.961679958285E+01
  1.948936259769E+01  1.935653020212E+01  1.921811659619E+01  1.907393389017E+01
  1.892379258554E+01  1.876750212140E+01  1.860487149141E+01  1.843570993665E+01
  1.825982771976E+01  1.807703698600E+01  1.788715271668E+01  1.768999378052E+01
  1.748538408843E+01  1.727315385686E+01  1.705314098457E+01  1.682519254750E+01
  1.658916641536E+01  1.634493299335E+01  1.609237709105E+01  1.596294664034E+01
  1.583139991958E+01  1.569772749160E+01  1.556192121687E+01  1.542397432679E+01
  1.528388149882E+01  1.514163893341E+01  1.499724443272E+01  1.485069748102E+01
  1.470199932666E+01  1.455115306557E+01  1.439816372618E+01  1.424303835554E+01
  1.408578610662E+01  1.392641832663E+01  1.376494864601E+01  1.360139306824E+01
  1.343577005988E+01  1.326810064092E+01  1.309840847505E+01  1.292671995963E+01
  1.275306431505E+01  1.257747367319E+01  1.239998316470E+01  1.222063100469E+01
  1.203945857641E+01  1.185651051268E+01  1.167183477454E+01  1.148548272664E+01
  1.129750920902E+01  1.110797260466E+01  1.091693490243E+01  1.072446175473E+01
  1.053062252938E+01  1.033549035515E+01  1.013914216023E+01  9.941658703189E+00
  9.743124595582E+00  9.543628315670E+00  9.343262212513E+00  9.142122499764E+00
  8.940309238450E+00  8.737926308032E+00  8.535081365021E+00  8.331885788454E+00
  8.128454611490E+00  7.924906438454E+00  7.721363346619E+00  7.517950772070E+00
  7.314797379007E+00  7.112034911870E+00  6.909798029732E+00  6.708224122425E+00
  6.507453107933E+00  6.307627210662E+00  6.108890720239E+00  5.911389730602E+00
  5.715271859226E+00  5.520685946413E+00  5.327781734723E+00  5.136709528706E+00
  4.947619835246E+00  4.760662984976E+00  4.575988735349E+00  4.393745856149E+00
  4.214081698364E+00  4.037141747535E+00  3.863069162898E+00  3.692004303801E+00
  3.524084245112E+00  3.359442283514E+00  3.198207436813E+00  3.040503938578E+00
  2.886450730657E+00  2.736160956323E+00  2.589741456985E+00  2.447292275616E+00
  2.308906170243E+00  2.174668140966E+00  2.044654974198E+00  1.918934807878E+00
  1.797566721577E+00  1.680600355460E+00  1.568075562116E+00  1.460022095314E+00
  1.356459339663E+00  1.257396085129E+00  1.162830350207E+00  1.072749257405E+00
  9.871289644457E-01  9.059346543418E-01  8.291205871334E-01  7.566302157031E-01
  6.883963676131E-01  6.243414944010E-01  5.643779891914E-01  5.084085728552E-01
  4.563267482642E-01  4.080173214639E-01  3.633569878153E-01  3.222149803614E-01
  2.844537768428E-01  2.499298609592E-01  2.184945326285E-01  1.899947611776E-01
  1.642740746004E-01  1.411734772651E-01  1.205323877638E-01  1.021895879772E-01
  8.598417391195E-02  7.175649845206E-02  5.934909589180E-02  4.860757797463E-02
  3.938149118718E-02  3.152512524662E-02  2.489826309068E-02  1.936686323561E-02
  1.480366611149E-02  1.108871691527E-02  8.109798632679E-03  5.762770160006E-03
  3.951805888751E-03  2.589534678388E-03  1.597077807885E-03  9.039872326097E-04
  4.480872429858E-04  1.752243836439E-04  3.893220277361E-05  1.901465160815E-08
  2.608832700158E-05  9.100286269849E-05  1.743041485502E-04  2.606004127800E-04
  3.389359936520E-04  4.021555884070E-04  4.462764476785E-04  4.698810400984E-04
  4.735417811962E-04  4.592881591352E-04  4.301250297060E-04  3.896090396413E-04
  3.414881281877E-04  2.894069199761E-04  2.366786340286E-04  1.861219762041E-04
  1.399594397539E-04  9.977159347259E-05  6.650036601850E-05  4.049310518181E-05
  2.157835505587E-05  9.163887426209E-06  2.347560894947E-06  3.205441830742E-08
  1.035399856816E-06  4.190466915111E-06  8.428058967366E-06  1.283996821320E-05
  1.672010990625E-05  1.958359881756E-05  2.116523875422E-05  2.140026879180E-05
  2.039126501291E-05  1.836577385469E-05  1.562952053719E-05  1.251989265357E-05
  9.363876226977E-06  6.443781154788E-06  3.973022570707E-06  2.083030535711E-06
  8.211582955240E-07  1.583635409666E-07  4.549795817522E-09  2.288556982016E-07
  6.819168782248E-07  1.217210077146E-06  1.708995476712E-06  2.065038536375E-06
  2.233125727917E-06  2.201279944287E-06  1.992416679544E-06  1.654856544850E-06
  1.250541859472E-06  8.429479600396E-07  4.865277333385E-07  2.191172142646E-07
  5.813461150479E-08  7.248357374564E-10  0.000000000000E+00  0.000000000000E+00
  0.000000000000E+00  0.000000000000E+00  0.000000000000E+00  0.000000000000E+00
  0.000000000000E+00  0.000000000000E+00  0.000000000000E+00  0.000000000000E+00
  0.000000000000E+00  0.000000000000E+00  0.000000000000E+00  0.000000000000E+00
  0.000000000000E+00  0.000000000000E+00  0.000000000000E+00  0.000000000000E+00
  0.000000000000E+00  0.000000000000E+00  0.000000000000E+00  0.000000000000E+00
  0.000000000000E+00  0.000000000000E+00  0.000000000000E+00  0.000000000000E+00
  0.000000000000E+00  0.000000000000E+00  0.000000000000E+00  0.000000000000E+00
  0.000000000000E+00  0.000000000000E+00  0.000000000000E+00  0.000000000000E+00
  0.000000000000E+00  0.000000000000E+00
</data>
</radfunc>
</pseudocore-charge>
<semilocal-potentials set="scalar_relativistic">
<slps n="4" l="s" rc="1.75983649523" eref="-0.846801804860">
<radfunc>
<data npts="290">
  4.801830614181E+01  4.799112455846E+01  4.791001005409E+01  4.777515045424E+01
  4.757831745196E+01  4.732896623652E+01  4.701406097919E+01  4.665738506039E+01
  4.626125011389E+01  4.580572784777E+01  4.530039592527E+01  4.476065258052E+01
  4.412120247240E+01  4.346792713786E+01  4.282969395874E+01  4.211172954937E+01
  4.130690625506E+01  4.056483549548E+01  3.975378617776E+01  3.887026967002E+01
  3.791126696488E+01  3.708808061023E+01  3.621416565602E+01  3.528903048334E+01
  3.431261604375E+01  3.328534720941E+01  3.220817894578E+01  3.136845054272E+01
  3.050236074626E+01  2.961096527085E+01  2.869551496830E+01  2.775745475601E+01
  2.679841957459E+01  2.582022724608E+01  2.482486818353E+01  2.381449198975E+01
  2.279139107708E+01  2.175798153424E+01  2.106455487534E+01  2.036843072247E+01
  1.967038786163E+01  1.897121392854E+01  1.827170193884E+01  1.757264677938E+01
  1.687484169552E+01  1.617907480946E+01  1.548612570443E+01  1.479676210845E+01
  1.411173670984E+01  1.343178413473E+01  1.275761811435E+01  1.208992886684E+01
  1.142938071526E+01  1.077660995987E+01  1.013222301927E+01  9.496794850789E+00
  8.870867657243E+00  8.254949882842E+00  7.649515497704E+00  7.055003566697E+00
  6.471818095082E+00  5.900328140315E+00  5.340868176600E+00  4.793738696272E+00
  4.259207029948E+00  3.737508365539E+00  3.228846944682E+00  2.979460893960E+00
  2.733397413982E+00  2.490673954644E+00  2.251306307516E+00  2.015308657640E+00
  1.782693636437E+00  1.553472375507E+00  1.327654561146E+00  1.105248489380E+00
  8.862611213318E-01  6.706981387168E-01  4.585639992969E-01  2.498619920934E-01
  4.459429218337E-02 -1.572379851076E-01 -3.556347307911E-01 -5.505967897536E-01
 -7.421259094208E-01 -9.302246897135E-01 -1.114896534457E+00 -1.296145604406E+00
 -1.473976772026E+00 -1.648395578202E+00 -1.819408190982E+00 -1.987021366518E+00
 -2.151242412319E+00 -2.312079152926E+00 -2.469539898134E+00 -2.623633413852E+00
 -2.774368895680E+00 -2.921755945296E+00 -3.065804549705E+00 -3.206525063396E+00
 -3.343928193446E+00 -3.478024987583E+00 -3.608826825194E+00 -3.736345411264E+00
 -3.860592773203E+00 -3.981581260442E+00 -4.099323546765E+00 -4.213832635188E+00
 -4.325121865236E+00 -4.433204922439E+00 -4.538095849772E+00 -4.639809060799E+00
 -4.738359354170E+00 -4.833761929118E+00 -4.926032401546E+00 -5.015186820214E+00
 -5.101241682532E+00 -5.184213949372E+00 -5.264121058259E+00 -5.340980934268E+00
 -5.414811997871E+00 -5.485633168930E+00 -5.553463865983E+00 -5.618323999918E+00
 -5.680233961084E+00 -5.739214598849E+00 -5.795287192593E+00 -5.848473413123E+00
 -5.898795273487E+00 -5.946275068185E+00 -5.990935299866E+00 -6.032798592630E+00
 -6.071887591208E+00 -6.108224845452E+00 -6.141832679739E+00 -6.172733047192E+00
 -6.200947368902E+00 -6.226496358727E+00 -6.249399834678E+00 -6.269676518414E+00
 -6.287343824948E+00 -6.302417645324E+00 -6.314912125739E+00 -6.324839447399E+00
 -6.332209612216E+00 -6.337030240412E+00 -6.339306387006E+00 -6.339040385189E+00
 -6.336231725568E+00 -6.330876981285E+00 -6.322969789995E+00 -6.312500904592E+00
 -6.299458325465E+00 -6.283827527733E+00 -6.265591797524E+00 -6.244732691669E+00
 -6.221230635279E+00 -6.195065671375E+00 -6.166218376074E+00 -6.134670951560E+00