<?xml version="1.0" encoding="UTF-8" ?>
<psml version="1.1" energy_unit="hartree" length_unit="bohr"
 uuid="87ec8210-1d60-11e8-513a-52a1b7fe9d4f"
 xmlns="http://esl.cecam.org/PSML/ns/1.1">
<provenance creator="ONCVPSP-3.3.0+psml-3.3.0-73 (scalar-relativistic)"
 date="2018-03-01">
<annotation action="semilocal-pseudopotential-generation"
 action-cont="projectors-generation" />
<input-file name="oncvpsp-input">
<![CDATA[# atsym z nc nv iexc psfile
Cs 55 9 3 -116133 upf
# n l f
1 0 2.0
2 0 2.0
2 1 6.0
3 0 2.0
3 1 6.0
3 2 10.0
4 0 2.0
4 1 6.0
4 2 10.0
5 0 2.0
5 1 6.0
6 0 1.0
# lmax
3
# l rc ep ncon nbas qcut
0 2.25 0.0 4 7 4.8
1 1.85 0.0 4 7 6.0
2 2.0 0.0 4 8 6.2
3 1.9 0.05 4 7 8.8
# lloc lpopt rc5 dvloc0
4 5 1.85 0.0
# l nproj debl
0 2 1.0
1 2 5.0
2 2 5.0
3 2 2.0
# icmod fcfact rcfact
3 5.0 1.4
# epsh1 epsh2 depsh
-12.0 12.0 0.02
# rlmax drl
6.0 0.01
 0
]]>
</input-file>
</provenance>
<pseudo-atom-spec atomic-label="Cs" atomic-number="55" z-pseudo="9"
 flavor="Hamann&apos;s oncvpsp" relativity="scalar" spin-dft="no"
 core-corrections="yes">
<annotation pseudo-energy="-20.4311287396" />
<exchange-correlation>
<annotation oncvpsp-xc-code="-116133" oncvpsp-xc-type="libxc-interface" />
<libxc-info number-of-functionals="2">
<functional name="Perdew, Burke &amp; Ernzerhof SOL (GGA)" type="exchange"
 id="116" />
<functional name="Perdew, Burke &amp; Ernzerhof SOL (GGA)" type="correlation"
 id="133" />
</libxc-info>
</exchange-correlation>
<valence-configuration total-valence-charge="9">
<shell n="5" l="s" occupation="2" />
<shell n="5" l="p" occupation="6" />
<shell n="6" l="s" occupation="1" />
</valence-configuration>
</pseudo-atom-spec>
<grid npts="457">
<annotation type="sampled from oncvpsp log grid"
 recipe="r(i:1..N) = r1*exp(a*(i-1)) + r=0; resampled"
 recipe-cont="r1: scale; a: step" scale="0.909090909091E-05"
 step="0.119285708653E-01" delta="0.500000000000E-02" rmax="44.3250217340" />
<grid-data>
  0.000000000000E+00  5.001478766148E-03  1.010994206942E-02  1.516652523997E-02
  2.019381588391E-02  2.533075473382E-02  3.065747126796E-02  3.579999718257E-02
  4.081958922404E-02  4.599109555586E-02  5.120334903089E-02  5.633035232730E-02
  6.197072366114E-02  6.736745720739E-02  7.323416643326E-02  7.866776607706E-02
  8.450451095384E-02  8.969793712724E-02  9.521053768690E-02  1.010619282556E-01
  1.072729299810E-01  1.125154581265E-01  1.180141935123E-01  1.237816572254E-01
  1.298309822696E-01  1.361759434711E-01  1.428309888448E-01  1.480348542423E-01
  1.534283158563E-01  1.590182813837E-01  1.648119101947E-01  1.708166225019E-01
  1.770401088640E-01  1.834903400354E-01  1.901755771749E-01  1.971043824259E-01
  2.042856298828E-01  2.117285169563E-01  2.168404902697E-01  2.220758870668E-01
  2.274376872841E-01  2.329289428059E-01  2.385527792010E-01  2.443123975020E-01
  2.502110760273E-01  2.562521722469E-01  2.624391246936E-01  2.687754549202E-01
  2.752647695038E-01  2.819107620987E-01  2.887172155388E-01  2.956880039908E-01
  3.028270951592E-01  3.101385525447E-01  3.176265377573E-01  3.252953128849E-01
  3.331492429192E-01  3.411927982403E-01  3.494305571610E-01  3.578672085331E-01
  3.665075544159E-01  3.753565128097E-01  3.844191204550E-01  3.937005356993E-01
  4.032060414332E-01  4.129410480976E-01  4.229110967628E-01  4.279860299240E-01
  4.331218622831E-01  4.383193246305E-01  4.435791565260E-01  4.489021064043E-01
  4.542889316812E-01  4.597403988614E-01  4.652572836477E-01  4.708403710515E-01
  4.764904555041E-01  4.822083409701E-01  4.879948410618E-01  4.938507791545E-01
  4.997769885044E-01  5.057743123664E-01  5.118436041148E-01  5.179857273642E-01
  5.242015560926E-01  5.304919747657E-01  5.368578784629E-01  5.433001730044E-01
  5.498197750805E-01  5.564176123815E-01  5.630946237300E-01  5.698517592148E-01
  5.766899803254E-01  5.836102600893E-01  5.906135832103E-01  5.977009462089E-01
  6.048733575634E-01  6.121318378541E-01  6.194774199084E-01  6.269111489473E-01
  6.344340827347E-01  6.420472917275E-01  6.497518592282E-01  6.575488815389E-01
  6.654394681174E-01  6.734247417348E-01  6.815058386356E-01  6.896839086993E-01
  6.979601156037E-01  7.063356369909E-01  7.148116646348E-01  7.233894046104E-01
  7.320700774657E-01  7.408549183953E-01  7.497451774161E-01  7.587421195451E-01
  7.678470249796E-01  7.770611892794E-01  7.863859235507E-01  7.958225546333E-01
  8.053724252889E-01  8.150368943924E-01  8.248173371251E-01  8.347151451706E-01
  8.447317269126E-01  8.548685076356E-01  8.651269297272E-01  8.755084528839E-01
  8.860145543186E-01  8.966467289704E-01  9.074064897180E-01  9.182953675946E-01
  9.293149120058E-01  9.404666909498E-01  9.517522912412E-01  9.631733187361E-01
  9.747313985610E-01  9.864281753437E-01  9.982653134478E-01  1.010244497209E+00
  1.022367431176E+00  1.034635840350E+00  1.047051470434E+00  1.059616088079E+00
  1.072331481136E+00  1.085199458910E+00  1.098221852417E+00  1.111400514646E+00
  1.124737320821E+00  1.138234168671E+00  1.151892978695E+00  1.165715694440E+00
  1.179704282773E+00  1.193860734166E+00  1.208187062976E+00  1.222685307732E+00
  1.237357531425E+00  1.252205821802E+00  1.267232291663E+00  1.282439079163E+00
  1.297828348113E+00  1.313402288291E+00  1.329163115750E+00  1.345113073139E+00
  1.361254430017E+00  1.377589483177E+00  1.394120556975E+00  1.410850003659E+00
  1.427780203703E+00  1.444913566147E+00  1.462252528941E+00  1.479799559288E+00
  1.497557154000E+00  1.515527839848E+00  1.533714173926E+00  1.552118744013E+00
  1.570744168941E+00  1.589593098969E+00  1.608668216156E+00  1.627972234750E+00
  1.647507901567E+00  1.667277996386E+00  1.687285332343E+00  1.707532756331E+00
  1.728023149407E+00  1.748759427199E+00  1.769744540326E+00  1.790981474810E+00
  1.812473252507E+00  1.834222931538E+00  1.856233606716E+00  1.878508409997E+00
  1.901050510917E+00  1.923863117048E+00  1.946949474452E+00  1.970312868146E+00
  1.993956622563E+00  2.017884102034E+00  2.042098711258E+00  2.066603895794E+00
  2.091403142543E+00  2.116499980254E+00  2.141897980017E+00  2.167600755777E+00
  2.193611964846E+00  2.219935308424E+00  2.246574532125E+00  2.273533426511E+00
  2.300815827629E+00  2.328425617561E+00  2.356366724971E+00  2.384643125671E+00
  2.413258843179E+00  2.442217949297E+00  2.471524564689E+00  2.501182859465E+00
  2.531197053779E+00  2.561571418424E+00  2.592310275445E+00  2.623417998750E+00
  2.654899014735E+00  2.686757802912E+00  2.718998896547E+00  2.751626883306E+00
  2.784646405905E+00  2.818062162776E+00  2.851878908730E+00  2.886101455634E+00
  2.920734673102E+00  2.955783489179E+00  2.991252891049E+00  3.027147925742E+00
  3.063473700851E+00  3.100235385261E+00  3.137438209884E+00  3.175087468403E+00
  3.213188518024E+00  3.251746780240E+00  3.290767741603E+00  3.330256954502E+00
  3.370220037956E+00  3.410662678412E+00  3.451590630552E+00  3.493009718119E+00
  3.534925834737E+00  3.577344944753E+00  3.620273084090E+00  3.663716361099E+00
  3.707680957433E+00  3.752173128922E+00  3.797199206469E+00  3.842765596947E+00
  3.888878784110E+00  3.935545329519E+00  3.982771873473E+00  4.030565135955E+00
  4.078931917587E+00  4.127879100598E+00  4.177413649805E+00  4.227542613602E+00
  4.278273124966E+00  4.329612402465E+00  4.381567751295E+00  4.434146564310E+00
  4.487356323082E+00  4.541204598959E+00  4.595699054147E+00  4.650847442796E+00
  4.706657612110E+00  4.763137503455E+00  4.820295153497E+00  4.878138695339E+00
  4.936676359683E+00  4.995916475999E+00  5.055867473711E+00  5.116537883395E+00
  5.177936337996E+00  5.240071574052E+00  5.302952432941E+00  5.366587862136E+00
  5.430986916482E+00  5.496158759479E+00  5.562112664593E+00  5.628858016568E+00
  5.696404312767E+00  5.764761164520E+00  5.833938298495E+00  5.903945558077E+00
  5.974792904773E+00  6.046490419631E+00  6.119048304666E+00  6.192476884322E+00
  6.266786606934E+00  6.341988046217E+00  6.418091902772E+00  6.495109005605E+00
  6.573050313673E+00  6.651926917437E+00  6.731750040446E+00  6.812531040931E+00
  6.894281413422E+00  6.977012790383E+00  7.060736943868E+00  7.145465787194E+00
  7.231211376641E+00  7.317985913161E+00  7.405801744118E+00  7.494671365048E+00
  7.584607421428E+00  7.675622710486E+00  7.767730183011E+00  7.860942945208E+00
  7.955274260550E+00  8.050737551677E+00  8.147346402297E+00  8.245114559124E+00
  8.344055933834E+00  8.444184605040E+00  8.545514820300E+00  8.648060998144E+00
  8.751837730122E+00  8.856859782883E+00  8.963142100278E+00  9.070699805481E+00
  9.179548203147E+00  9.289702781585E+00  9.401179214964E+00  9.513993365543E+00
  9.628161285930E+00  9.743699221361E+00  9.860623612017E+00  9.978951095361E+00
  1.009869850851E+01  1.021988289061E+01  1.034252148530E+01  1.046663174312E+01
  1.059223132404E+01  1.071933809992E+01  1.084797015712E+01  1.097814579901E+01
  1.110988354860E+01  1.124320215118E+01  1.137812057699E+01  1.151465802392E+01
  1.165283392021E+01  1.179266792725E+01  1.193417994237E+01  1.207739010168E+01
  1.222231878290E+01  1.236898660830E+01  1.251741444760E+01  1.266762342097E+01
  1.281963490202E+01  1.297347052084E+01  1.312915216710E+01  1.328670199310E+01
  1.344614241702E+01  1.360749612602E+01  1.377078607953E+01  1.393603551249E+01
  1.410326793864E+01  1.427250715390E+01  1.444377723975E+01  1.461710256663E+01
  1.479250779743E+01  1.497001789099E+01  1.514965810569E+01  1.533145400295E+01
  1.551543145099E+01  1.570161662840E+01  1.589003602794E+01  1.608071646028E+01
  1.627368505780E+01  1.646896927849E+01  1.666659690984E+01  1.686659607275E+01
  1.706899522563E+01  1.727382316834E+01  1.748110904636E+01  1.769088235491E+01
  1.790317294317E+01  1.811801101849E+01  1.833542715071E+01  1.855545227652E+01
  1.877811770384E+01  1.900345511628E+01  1.923149657768E+01  1.946227453661E+01
  1.969582183105E+01  1.993217169302E+01  2.017135775334E+01  2.041341404638E+01
  2.065837501494E+01  2.090627551511E+01  2.115715082130E+01  2.141103663115E+01
  2.166796907073E+01  2.192798469957E+01  2.219112051597E+01  2.245741396216E+01
  2.272690292971E+01  2.299962576486E+01  2.327562127404E+01  2.355492872933E+01
  2.383758787408E+01  2.412363892857E+01  2.441312259571E+01  2.470608006686E+01
  2.500255302766E+01  2.530258366400E+01  2.560621466796E+01  2.591348924398E+01
  2.622445111491E+01  2.653914452829E+01  2.685761426263E+01  2.717990563378E+01
  2.750606450138E+01  2.783613727540E+01  2.817017092270E+01  2.850821297378E+01
  2.885031152946E+01  2.919651526782E+01  2.954687345103E+01  2.990143593244E+01
  3.026025316363E+01  3.062337620160E+01  3.099085671601E+01  3.136274699661E+01
  3.173909996057E+01  3.211996916009E+01  3.250540879001E+01  3.289547369549E+01
  3.329021937984E+01  3.368970201240E+01  3.409397843655E+01  3.450310617779E+01
  3.491714345192E+01  3.533614917334E+01  3.576018296342E+01  3.618930515898E+01
  3.662357682089E+01  3.706305974274E+01  3.750781645965E+01  3.795791025717E+01
  3.841340518026E+01  3.887436604242E+01  3.934085843493E+01  3.981294873615E+01
  4.029070412098E+01  4.077419257043E+01  4.126348288128E+01  4.175864467585E+01
  4.225974841196E+01  4.276686539291E+01  4.328006777762E+01  4.379942859095E+01
  4.432502173405E+01
</grid-data>
</grid>
<valence-charge total-charge="9" is-unscreening-charge="yes"
 rescaled-to-z-pseudo="no">
<radfunc>
<data npts="457">
  3.991636383390E-02  3.993056889150E-02  3.997442198759E-02  4.004708259891E-02
  4.014825311230E-02  4.028154288137E-02  4.045184993254E-02  4.064746056686E-02
  4.086816330700E-02  4.112655563679E-02  4.141912581214E-02  4.173871842795E-02
  4.212718109649E-02  4.253549047208E-02  4.302058102028E-02  4.350875362915E-02
  4.407551370524E-02  4.461732782035E-02  4.523178998722E-02  4.592918051261E-02
  4.672137092521E-02  4.743254245157E-02  4.822117219760E-02  4.909632462371E-02
  5.006824496923E-02  5.114853415423E-02  5.235035281077E-02  5.334039393344E-02
  5.441423018715E-02  5.557965652991E-02  5.684528537733E-02  5.822064300561E-02
  5.971627830899E-02  6.134388554133E-02  6.311644287757E-02  6.504836885622E-02
  6.715569901227E-02  6.945628527736E-02  7.110710637950E-02  7.285906311397E-02
  7.471909483837E-02  7.669467051250E-02  7.879383190832E-02  8.102524034536E-02
  8.339822720684E-02  8.592284850194E-02  8.860994374831E-02  9.147119945572E-02
  9.451921749546E-02  9.776758864039E-02  1.012309715559E-01  1.049251775123E-01
  1.088672610708E-01  1.130756169704E-01  1.175700834044E-01  1.223720518264E-01
  1.275045833591E-01  1.329925317970E-01  1.388626730847E-01  1.451438410247E-01
  1.518670688039E-01  1.590657357330E-01  1.667757183543E-01  1.750355447927E-01
  1.838865508873E-01  1.933730362460E-01  2.035424179043E-01  2.088989017749E-01
  2.144453787337E-01  2.201887173566E-01  2.261360071273E-01  2.322945620235E-01
  2.386719237823E-01  2.452758647978E-01  2.521143905976E-01  2.591957418440E-01
  2.665283957988E-01  2.741210671873E-01  2.819827083914E-01  2.901225088976E-01
  2.985498939205E-01  3.072745221153E-01  3.163062822899E-01  3.256552890185E-01
  3.353318770563E-01  3.453465944444E-01  3.557101941918E-01  3.664336244144E-01
  3.775280168015E-01  3.890046732795E-01  4.008750507319E-01  4.131507436312E-01
  4.258434644317E-01  4.389650215668E-01  4.525272948898E-01  4.665422083922E-01
  4.810217000296E-01  4.959776884814E-01  5.114220366699E-01  5.273665118606E-01
  5.438227421657E-01  5.608021692752E-01  5.783159972408E-01  5.963751371413E-01
  6.149901474667E-01  6.341711700631E-01  6.539278614929E-01  6.742693196766E-01
  6.952040056988E-01  7.167396606801E-01  7.388832176363E-01  7.616407082764E-01
  7.850171647157E-01  8.090165161188E-01  8.336414803215E-01  8.588934505268E-01
  8.847723772165E-01  9.112766454744E-01  9.384029479745E-01  9.661461539537E-01
  9.944991745564E-01  1.023452825018E+00  1.052995684230E+00  1.083113952327E+00
  1.113791307017E+00  1.145008759483E+00  1.176744510790E+00  1.208973809835E+00
  1.241668813984E+00  1.274798453677E+00  1.308328302376E+00  1.342220453363E+00
  1.376433405017E+00  1.410921956310E+00  1.445637114371E+00  1.480526016093E+00
  1.515531865846E+00  1.550593891446E+00  1.585647320618E+00  1.620623380256E+00
  1.655449320793E+00  1.690048468071E+00  1.724340305029E+00  1.758240585534E+00
  1.791661482597E+00  1.824511773093E+00  1.856697060969E+00  1.888120040711E+00
  1.918680802605E+00  1.948277181028E+00  1.976805146630E+00  2.004159242881E+00
  2.030233066976E+00  2.054919794555E+00  2.078112747126E+00  2.099706000414E+00
  2.119595031207E+00  2.137677399479E+00  2.153853461856E+00  2.168027111643E+00
  2.180106539842E+00  2.190005010761E+00  2.197641645021E+00  2.202942201987E+00
  2.205839852942E+00  2.206275935683E+00  2.204200680679E+00  2.199573898491E+00
  2.192365617925E+00  2.182556664240E+00  2.170139166863E+00  2.155116986342E+00
  2.137506050825E+00  2.117334593108E+00  2.094643280337E+00  2.069485229733E+00
  2.041925905207E+00  2.012042891502E+00  1.979925544471E+00  1.945674518196E+00
  1.909401171954E+00  1.871226862391E+00  1.831282128599E+00  1.789705780200E+00
  1.746643900701E+00  1.702248780491E+00  1.656677795604E+00  1.610092249856E+00
  1.562656199011E+00  1.514535276256E+00  1.465895538334E+00  1.416902090046E+00
  1.367716704000E+00  1.318495017912E+00  1.269385523288E+00  1.220529309060E+00
  1.172059354425E+00  1.124100099134E+00  1.076767064938E+00  1.030166565194E+00
  9.843955011517E-01  9.395412453960E-01  8.956816118794E-01  8.528849108601E-01
  8.112100859609E-01  7.707069294813E-01  7.314163710740E-01  6.933708339753E-01
  6.565947442124E-01  6.211054475624E-01  5.869143420954E-01  5.540272329311E-01
  5.224446996872E-01  4.921624599738E-01  4.631717341072E-01  4.354596071755E-01
  4.090093866443E-01  3.838009536021E-01  3.598111059775E-01  3.370138922654E-01
  3.153809344352E-01  2.948817390379E-01  2.754839954906E-01  2.571538608551E-01
  2.398562305174E-01  2.235549943329E-01  2.082132779380E-01  1.937936690491E-01
  1.802584286827E-01  1.675696873256E-01  1.556896261675E-01  1.445806435860E-01
  1.342055071347E-01  1.245274913401E-01  1.155105016624E-01  1.071191850147E-01
  9.931902727161E-02  9.207643823353E-02  8.535882454088E-02  7.913465106131E-02
  7.337349129969E-02  6.804606740394E-02  6.312428036156E-02  5.858123099973E-02
  5.439123241637E-02  5.052981447922E-02  4.697372103453E-02  4.370090046590E-02
  4.069049023729E-02  3.792279604281E-02  3.537926616991E-02  3.304246166438E-02
  3.089602286643E-02  2.892463286885E-02  2.711397843405E-02  2.545070889706E-02
  2.392239357778E-02  2.251747822659E-02  2.122524102920E-02  2.003574869387E-02
  1.893981312784E-02  1.792894917195E-02  1.699533379429E-02  1.613176704408E-02
  1.533163493991E-02  1.458887432632E-02  1.389793959980E-02  1.325377110164E-02
  1.265176491842E-02  1.208774382705E-02  1.155792916532E-02  1.105891348435E-02
  1.058763392514E-02  1.014134634009E-02  9.717600237645E-03  9.314214659535E-03
  8.929255107718E-03  8.561011625846E-03  8.207978116757E-03  7.868832948315E-03
  7.542420870640E-03  7.227736241196E-03  6.923907532077E-03  6.630183076496E-03
  6.345917998625E-03  6.070562261848E-03  5.803649764319E-03  5.544788406828E-03
  5.293651055656E-03  5.049967322045E-03  4.813516079932E-03  4.584118644800E-03
  4.361632538971E-03  4.145945772960E-03  3.936971578711E-03  3.734643539094E-03
  3.538911068764E-03  3.349735214090E-03  3.167084753556E-03  2.990932593627E-03
  2.821252467235E-03  2.658015951449E-03  2.501189826416E-03  2.350733798799E-03
  2.206598609650E-03  2.068724539681E-03  1.937040315263E-03  1.811462409628E-03
  1.691894710403E-03  1.578228543136E-03  1.470342999259E-03  1.368105532029E-03
  1.271372774572E-03  1.179991534001E-03  1.093799916628E-03  1.012628542015E-03
  9.363018073584E-04  8.646391682052E-04  7.974564063302E-04  7.345668605116E-04
  6.757826006982E-04  6.209155305133E-04  5.697784070927E-04  5.221857708509E-04
  4.779547808957E-04  4.369059544596E-04  3.988638109247E-04  3.636574228020E-04
  3.311208774334E-04  3.010936542599E-04  2.734209232691E-04  2.479537707590E-04
  2.245493588533E-04  2.030710253218E-04  1.833883302225E-04  1.653770557228E-04
  1.489191651988E-04  1.339027273720E-04  1.202218108522E-04  1.077763540196E-04
  9.647201472387E-05  8.622000381221E-05  7.693690603348E-05  6.854449141941E-05
  6.096951981616E-05  5.414354084513E-05  4.800269121226E-05  4.248749096471E-05
  3.754264001531E-05  3.311681601652E-05  2.916247446768E-05  2.563565177672E-05
  2.249577186870E-05  1.970545683197E-05  1.723034201537E-05  1.503889593050E-05
  1.310224526785E-05  1.139400530023E-05  9.890115917606E-06  8.568683511296E-06
  7.409828900620E-06  6.395541469333E-06  5.509539651934E-06  4.737137880669E-06
  4.065120072599E-06  3.481619702903E-06  2.976006476055E-06  2.538779571411E-06
  2.161467404756E-06  1.836533813274E-06  1.557290538890E-06  1.317815854661E-06
  1.112879151406E-06  9.378712773377E-07  7.887404025945E-07  6.619331632518E-07
  5.543408257520E-07  4.632502027187E-07  3.862990446167E-07  3.214356285526E-07
  2.668822653923E-07  2.211024490262E-07  1.827713767264E-07  1.507495767708E-07
  1.240593885354E-07  1.018640507457E-07  8.344916521300E-08  6.820631587704E-08
  5.561863605006E-08  4.524813016954E-08  3.672456989784E-08  2.973579786593E-08
  2.401928558424E-08  1.935480490088E-08  1.555808476736E-08  1.247533688804E-08
  9.978545019569E-09  7.961423204413E-09  6.335958043434E-09  5.029459222104E-09
  3.982050905542E-09  3.144544319516E-09  2.476638857808E-09  1.945405427577E-09
  1.524011495194E-09  1.190652461025E-09  9.276586105674E-10  7.207510006986E-10
  5.584232830668E-10  4.314296814669E-10  3.323621647855E-10  2.553023289436E-10
  1.955356555369E-10  1.493176849105E-10  1.136832583382E-10  8.629137662878E-11
  6.529941737378E-11  4.926147434485E-11  3.704645218325E-11  2.777228722661E-11
  2.075328877251E-11  1.545812001220E-11  1.147637820859E-11  8.492101702561E-12
  6.262837750686E-12  4.603159388223E-12  3.371729592383E-12  2.461184000914E-12
  1.790245340965E-12  1.297598691502E-12  9.371511220912E-13  6.743758355478E-13
  4.835028249031E-13  3.453678678187E-13  2.457716244131E-13  1.742325092583E-13
  1.230423934991E-13  8.655431172880E-14  6.064723005591E-14  4.232541907570E-14
  2.941975433595E-14  2.036589378692E-14  1.404020590598E-14  9.638904847032E-15
  6.589379128539E-15  4.485408347375E-15  3.040030870259E-15  2.051398669851E-15
  1.378146837761E-15  9.217035710392E-16  6.136406389623E-16  4.066685446599E-16
  2.682543041325E-16  0.000000000000E+00  0.000000000000E+00  0.000000000000E+00
  0.000000000000E+00
</data>
</radfunc>
</valence-charge>
<pseudocore-charge matching-radius="1.32916311575"
 number-of-continuous-derivatives="4">
<annotation model-charge-form="Teter function with specified parameters" />
<radfunc>
<data npts="290">
  1.176590312086E+01  1.176563457440E+01  1.176480587086E+01  1.176343391826E+01
  1.176152600197E+01  1.175901652765E+01  1.175581696906E+01  1.175215145149E+01
  1.174802773813E+01  1.174321584672E+01  1.173778815426E+01  1.173188396682E+01
  1.172474192808E+01  1.171727520284E+01  1.170845710886E+01  1.169963983189E+01
  1.168947335031E+01  1.167982357704E+01  1.166896019390E+01  1.165673184511E+01
  1.164296864166E+01  1.163072565713E+01  1.161727070618E+01  1.160248534568E+01
  1.158623987933E+01  1.156839235649E+01  1.154878749671E+01  1.153282905549E+01
  1.151570958378E+01  1.149734644457E+01  1.147765140082E+01  1.145653027980E+01
  1.143388262425E+01  1.140960133125E+01  1.138357227979E+01  1.135567394832E+01
  1.132577702419E+01  1.129374400714E+01  1.127113016767E+01  1.124745672303E+01
  1.122267635809E+01  1.119673987882E+01  1.116959616171E+01  1.114119210453E+01
  1.111147257893E+01  1.108038038511E+01  1.104785620926E+01  1.101383858421E+01
  1.097826385392E+01  1.094106614248E+01  1.090217732841E+01  1.086152702501E+01
  1.081904256763E+01  1.077464900893E+01  1.072826912316E+01  1.067982342049E+01
  1.062923017288E+01  1.057640545258E+01  1.052126318501E+01  1.046371521730E+01
  1.040367140449E+01  1.034103971493E+01  1.027572635701E+01  1.020763592923E+01
  1.013667159577E+01  1.006273528991E+01  9.985727947665E+00  9.946041472594E+00
  9.905549774324E+00  9.864240313865E+00  9.822100546368E+00  9.779117932690E+00
  9.735279951631E+00  9.690574112847E+00  9.644987970483E+00  9.598509137527E+00
  9.551125300924E+00  9.502824237469E+00  9.453593830495E+00  9.403422087388E+00
  9.352297157942E+00  9.300207353586E+00  9.247141167497E+00  9.193087295617E+00
  9.138034658605E+00  9.081972424737E+00  9.024890033762E+00  8.966777221758E+00
  8.907624046968E+00  8.847420916661E+00  8.786158615019E+00  8.723828332048E+00
  8.660421693549E+00  8.595930792127E+00  8.530348219264E+00  8.463667098444E+00
  8.395881119325E+00  8.326984572975E+00  8.256972388131E+00  8.185840168492E+00
  8.113584231026E+00  8.040201645250E+00  7.965690273488E+00  7.890048812049E+00
  7.813276833296E+00  7.735374828570E+00  7.656344251910E+00  7.576187564511E+00
  7.494908279871E+00  7.412511009540E+00  7.329001509394E+00  7.244386726359E+00
  7.158674845473E+00  7.071875337193E+00  6.983999004816E+00  6.895058031911E+00
  6.805066029603E+00  6.714038083581E+00  6.621990800656E+00  6.528942354713E+00
  6.434912531870E+00  6.339922774647E+00  6.243996224946E+00  6.147157765618E+00
  6.049434060385E+00  5.950853591889E+00  5.851446697578E+00  5.751245603198E+00
  5.650284453580E+00  5.548599340441E+00  5.446228326892E+00  5.343211468331E+00
  5.239590829391E+00  5.135410496616E+00  5.030716586497E+00  4.925557248535E+00
  4.819982662941E+00  4.714045032630E+00  4.607798569117E+00  4.501299471948E+00
  4.394605901288E+00  4.287777943291E+00  4.180877567885E+00  4.073968578607E+00
  3.967116554135E+00  3.860388781184E+00  3.753854178425E+00  3.647583211155E+00
  3.541647796403E+00  3.436121198251E+00  3.331077913138E+00  3.226593544964E+00
  3.122744669870E+00  3.019608690585E+00  2.917263680311E+00  2.815788216168E+00
  2.715261202268E+00  2.615761682574E+00  2.517368643772E+00  2.420160808450E+00
  2.324216418969E+00  2.229613012514E+00  2.136427187877E+00  2.044734364649E+00
  1.954608535594E+00  1.866122013067E+00  1.779345170471E+00  1.694346179839E+00
  1.611190746743E+00  1.529941843856E+00  1.450659444569E+00  1.373400258224E+00
  1.298217468565E+00  1.225160477166E+00  1.154274653650E+00  1.085601094590E+00
  1.019176393102E+00  9.550324211359E-01  8.931961265562E-01  8.336893471288E-01
  7.765286435220E-01  7.217251534340E-01  6.692844689203E-01  6.192065389364E-01
  5.714855990264E-01  5.261101299771E-01  4.830628471131E-01  4.423207217401E-01
  4.038550360369E-01  3.676314724648E-01  3.336102384960E-01  3.017462271683E-01
  2.719892136445E-01  2.442840876060E-01  2.185711209273E-01  1.947862696828E-01
  1.728615091147E-01  1.527251997637E-01  1.343024825242E-01  1.175156999442E-01
  1.022848406585E-01  8.852800342168E-02  7.616187680601E-02  6.510223026146E-02
  5.526441190372E-02  4.656384811229E-02  3.891653979585E-02  3.223955002177E-02
  2.645147762072E-02  2.147291137401E-02  1.722685947481E-02  1.363914913309E-02
  1.063879146842E-02  8.158307208846E-03  6.134009185837E-03  4.506238182851E-03
  3.219549352136E-03  2.222847153487E-03  1.469467578196E-03  9.172072878546E-04
  5.283002043005E-04  2.693430149230E-04  1.111719854529E-04  2.869437741133E-05
  6.786253978952E-07  9.508215748519E-06  4.090489837818E-05  8.362743454850E-05
  1.291525135705E-04  1.713447427383E-04  2.061227126495E-04  2.311280548524E-04
  2.454041364119E-04  2.490905786758E-04  2.431391541495E-04  2.290558217404E-04
  2.086727293718E-04  1.839529732074E-04  1.568297892954E-04  1.290807058169E-04
  1.022360449851E-04  7.752007715105E-05  5.582213950665E-05  3.769417894488E-05
  2.337049934207E-05  1.280501692773E-05  5.721073748838E-06  1.668838176673E-06
  8.553091485693E-08  3.541407909743E-07  1.856910456350E-06  4.020640612787E-06
  6.351735850633E-06  8.459842144187E-06  1.006984840860E-05  1.102288521180E-05
  1.126769963937E-05  1.084437115535E-05  9.862725210638E-06  8.477979739888E-06
  6.866121194213E-06  5.201264946707E-06  3.636839579078E-06  2.291889596514E-06
  1.243170958263E-06  5.230787366730E-07  1.228568585534E-07  5.140657615596E-11
  8.882552553431E-08  3.115840801791E-07  5.903694707641E-07  8.566759153892E-07
  1.058658362687E-06  1.165138367953E-06  1.166276449254E-06  1.071228478529E-06
  9.034761036094E-07  6.947726614009E-07  4.787483796272E-07  2.851649473344E-07
  1.356151788770E-07  4.116414940448E-08  2.074490597325E-09  0.000000000000E+00
  0.000000000000E+00  0.000000000000E+00  0.000000000000E+00  0.000000000000E+00
  0.000000000000E+00  0.000000000000E+00
</data>
</radfunc>
</pseudocore-charge>
<semilocal-potentials set="scalar_relativistic">
<slps n="5" l="s" rc="2.27353342651" eref="-0.984456187440">
<radfunc>
<data npts="290">
  1.394127157405E+01  1.393734975388E+01  1.392525543339E+01  1.390525920181E+01
  1.387750589468E+01  1.384109848144E+01  1.379483745851E+01  1.374205595844E+01
  1.368295139118E+01  1.361434826817E+01  1.353743347727E+01  1.345432420101E+01
  1.335455902711E+01  1.325114734792E+01  1.313017410456E+01  1.301044410613E+01
  1.287389811014E+01  1.274575879549E+01  1.260318365275E+01  1.244478351362E+01
  1.226909418564E+01  1.211506941341E+01  1.194819710221E+01  1.176765876875E+01
  1.157263120888E+01  1.136229654073E+01  1.113585406140E+01  1.095498678222E+01
  1.076431653863E+01  1.056355373437E+01  1.035243193368E+01  1.013071253011E+01
  9.898189650066E+00  9.654695237482E+00  9.400104252857E+00  9.134339906705E+00
  8.857378834131E+00  8.569256104994E+00  8.371019142701E+00  8.167909320584E+00
  7.959986099749E+00  7.747323254232E+00  7.530009266939E+00  7.308147655182E+00
  7.081857218460E+00  6.851272201510E+00  6.616542366247E+00  6.377832966901E+00
  6.135324623512E+00  5.889213089927E+00  5.639708913555E+00  5.387036985369E+00
  5.131435979958E+00  4.873157686838E+00  4.612466235678E+00  4.349637219588E+00
  4.084956722064E+00  3.818720254658E+00  3.551231613786E+00  3.282801666379E+00
  3.013747075256E+00  2.744388976050E+00  2.475051618411E+00  2.206060984792E+00
  1.937743400569E+00  1.670424149442E+00  1.404426108046E+00  1.272022452952E+00
  1.140068413441E+00  1.008603086246E+00  8.776651766926E-01  7.472929618841E-01
  6.175242550880E-01  4.883963713824E-01  3.599460946502E-01  2.322096459901E-01
  1.052226536101E-01 -2.097987573351E-02 -1.463635836966E-01 -2.708947856563E-01
 -3.945404943236E-01 -5.172684416215E-01 -6.390470987937E-01 -7.598456947176E-01
 -8.796342323993E-01 -9.983835036342E-01 -1.116065101823E+00 -1.232651432940E+00
 -1.348115724648E+00 -1.462432033579E+00 -1.575575250773E+00 -1.687521105307E+00
 -1.798246166134E+00 -1.907727842139E+00 -2.015944380474E+00 -2.122874863173E+00
 -2.228499202111E+00 -2.332798132332E+00 -2.435753203803E+00 -2.537346771628E+00
 -2.637561984796E+00 -2.736382773489E+00 -2.833793835030E+00 -2.929780618513E+00
 -3.024329308183E+00 -3.117426805625E+00 -3.209060710821E+00 -3.299219302141E+00
 -3.387891515324E+00 -3.475066921526E+00 -3.560735704471E+00 -3.644888636798E+00
 -3.727517055629E+00 -3.808612837444E+00 -3.888168372302E+00 -3.966176537462E+00
 -4.042630670462E+00 -4.117524541686E+00 -4.190852326480E+00 -4.262608576841E+00
 -4.332788192718E+00 -4.401386392958E+00 -4.468398685910E+00 -4.533820839727E+00
 -4.597648852362E+00 -4.659878921283E+00 -4.720507412910E+00 -4.779530831787E+00
 -4.836945789475E+00 -4.892748973195E+00 -4.946937114191E+00 -4.999506955841E+00
 -5.050455221514E+00 -5.099778582169E+00 -5.147473623732E+00 -5.193536814262E+00
 -5.237964470941E+00 -5.280752726933E+00 -5.321897498180E+00 -5.361394450198E+00
 -5.399238964986E+00 -5.435426108156E+00 -5.469950596430E+00 -5.502806765672E+00
 -5.533988539663E+00 -5.563489399836E+00 -5.591302356239E+00 -5.617419920028E+00
 -5.641834077804E+00 -5.664536268184E+00 -5.685517360985E+00 -5.704767639468E+00