<?xml version="1.0" encoding="UTF-8" ?>
<psml version="1.1" energy_unit="hartree" length_unit="bohr"
 uuid="e75228a0-1d5f-11e8-6ee0-67117dec6dc3"
 xmlns="http://esl.cecam.org/PSML/ns/1.1">
<provenance creator="ONCVPSP-3.3.0+psml-3.3.0-73 (scalar-relativistic)"
 date="2018-03-01">
<annotation action="semilocal-pseudopotential-generation"
 action-cont="projectors-generation" />
<input-file name="oncvpsp-input">
<![CDATA[# atsym z nc nv iexc psfile
Ge 32 5 3 -116133 upf
# n l f
1 0 2.0
2 0 2.0
2 1 6.0
3 0 2.0
3 1 6.0
3 2 10.0
4 0 2.0
4 1 2.0
# lmax
2
# l rc ep ncon nbas qcut
0 1.9 0.0 4 7 4.7
1 1.8 0.0 4 7 5.0
2 1.9 0.0 4 7 8.8
# lloc lpopt rc5 dvloc0
4 5 1.75 0.0
# l nproj debl
0 2 3.0
1 2 2.5
2 2 1.5
# icmod fcfact
3 5 1.4
# epsh1 epsh2 depsh
-12.0 12.0 0.02
# rlmax drl
6.0 0.01
 0
]]>
</input-file>
</provenance>
<pseudo-atom-spec atomic-label="Ge" atomic-number="32" z-pseudo="14"
 flavor="Hamann&apos;s oncvpsp" relativity="scalar" spin-dft="no"
 core-corrections="yes">
<annotation pseudo-energy="-79.7659935772" />
<exchange-correlation>
<annotation oncvpsp-xc-code="-116133" oncvpsp-xc-type="libxc-interface" />
<libxc-info number-of-functionals="2">
<functional name="Perdew, Burke &amp; Ernzerhof SOL (GGA)" type="exchange"
 id="116" />
<functional name="Perdew, Burke &amp; Ernzerhof SOL (GGA)" type="correlation"
 id="133" />
</libxc-info>
</exchange-correlation>
<valence-configuration total-valence-charge="14">
<shell n="3" l="d" occupation="10" />
<shell n="4" l="s" occupation="2" />
<shell n="4" l="p" occupation="2" />
</valence-configuration>
</pseudo-atom-spec>
<grid npts="457">
<annotation type="sampled from oncvpsp log grid"
 recipe="r(i:1..N) = r1*exp(a*(i-1)) + r=0; resampled"
 recipe-cont="r1: scale; a: step" scale="0.156250000000E-04"
 step="0.119285708653E-01" delta="0.500000000000E-02" rmax="44.0106814606" />
<grid-data>
  0.000000000000E+00  5.025601837514E-03  1.003824527536E-02  1.505896861607E-02
  2.029121445031E-02  2.545292972101E-02  3.080533800935E-02  3.597266729221E-02
  4.101646976877E-02  4.621291924683E-02  5.145031239924E-02  5.660204419540E-02
  6.226962009944E-02  6.769238310509E-02  7.271481084123E-02  7.810987696307E-02
  8.390522932815E-02  8.906182522060E-02  9.453533200659E-02  1.003452262006E-01
  1.065121812926E-01  1.117175309401E-01  1.171772708801E-01  1.229038334035E-01
  1.289102583787E-01  1.352102229449E-01  1.418180726557E-01  1.469850337403E-01
  1.523402464797E-01  1.578905695834E-01  1.636431116494E-01  1.696052402683E-01
  1.757845914596E-01  1.821890794514E-01  1.888269068167E-01  1.957065749787E-01
  2.028368950993E-01  2.102269993637E-01  2.153027200364E-01  2.205009889089E-01
  2.258247647852E-01  2.312770779061E-01  2.368610316751E-01  2.425798044239E-01
  2.484366512219E-01  2.544349057290E-01  2.605779820929E-01  2.668693768925E-01
  2.733126711282E-01  2.799115322600E-01  2.866697162948E-01  2.935910699251E-01
  3.006795327173E-01  3.079391393553E-01  3.153740219359E-01  3.229884123215E-01
  3.307866445486E-01  3.387731572945E-01  3.469524964043E-01  3.553293174774E-01
  3.639083885186E-01  3.726945926510E-01  3.816929308960E-01  3.909085250195E-01
  4.003466204476E-01  4.100125892517E-01  4.199119332066E-01  4.249508764051E-01
  4.300502869219E-01  4.352108903650E-01  4.404334210494E-01  4.457186221020E-01
  4.510672455672E-01  4.564800525140E-01  4.619578131442E-01  4.675013069019E-01
  4.731113225847E-01  4.787886584557E-01  4.845341223572E-01  4.903485318255E-01
  4.962327142074E-01  5.021875067779E-01  5.082137568592E-01  5.143123219415E-01
  5.204840698048E-01  5.267298786425E-01  5.330506371862E-01  5.394472448324E-01
  5.459206117704E-01  5.524716591117E-01  5.591013190210E-01  5.658105348493E-01
  5.726002612674E-01  5.794714644027E-01  5.864251219755E-01  5.934622234392E-01
  6.005837701205E-01  6.077907753619E-01  6.150842646662E-01  6.224652758422E-01
  6.299348591524E-01  6.374940774622E-01  6.451440063917E-01  6.528857344684E-01
  6.607203632820E-01  6.686490076414E-01  6.766727957331E-01  6.847928692819E-01
  6.930103837133E-01  7.013265083179E-01  7.097424264177E-01  7.182593355347E-01
  7.268784475611E-01  7.356009889318E-01  7.444282007990E-01  7.533613392086E-01
  7.624016752791E-01  7.715504953825E-01  7.808091013271E-01  7.901788105430E-01
  7.996609562695E-01  8.092568877447E-01  8.189679703977E-01  8.287955860424E-01
  8.387411330750E-01  8.488060266719E-01  8.589916989919E-01  8.692995993798E-01
  8.797311945724E-01  8.902879689072E-01  9.009714245341E-01  9.117830816285E-01
  9.227244786081E-01  9.337971723514E-01  9.450027384196E-01  9.563427712806E-01
  9.678188845360E-01  9.794327111504E-01  9.911859036842E-01  1.003080134528E+00
  1.015117096143E+00  1.027298501296E+00  1.039626083312E+00  1.052101596312E+00
  1.064726815468E+00  1.077503537253E+00  1.090433579700E+00  1.103518782657E+00
  1.116761008048E+00  1.130162140145E+00  1.143724085827E+00  1.157448774857E+00
  1.171338160155E+00  1.185394218077E+00  1.199618948694E+00  1.214014376078E+00
  1.228582548591E+00  1.243325539174E+00  1.258245445644E+00  1.273344390992E+00
  1.288624523684E+00  1.304088017968E+00  1.319737074184E+00  1.335573919074E+00
  1.351600806103E+00  1.367820015776E+00  1.384233855965E+00  1.400844662237E+00
  1.417654798184E+00  1.434666655762E+00  1.451882655631E+00  1.469305247499E+00
  1.486936910469E+00  1.504780153394E+00  1.522837515235E+00  1.541111565418E+00
  1.559604904203E+00  1.578320163053E+00  1.597260005010E+00  1.616427125070E+00
  1.635824250571E+00  1.655454141578E+00  1.675319591277E+00  1.695423426372E+00
  1.715768507488E+00  1.736357729578E+00  1.757194022333E+00  1.778280350601E+00
  1.799619714808E+00  1.821215151386E+00  1.843069733203E+00  1.865186570001E+00
  1.887568808841E+00  1.910219634547E+00  1.933142270162E+00  1.956339977404E+00
  1.979816057133E+00  2.003573849818E+00  2.027616736016E+00  2.051948136848E+00
  2.076571514490E+00  2.101490372664E+00  2.126708257136E+00  2.152228756222E+00
  2.178055501297E+00  2.204192167312E+00  2.230642473320E+00  2.257410183000E+00
  2.284499105196E+00  2.311913094458E+00  2.339656051592E+00  2.367731924211E+00
  2.396144707301E+00  2.424898443789E+00  2.453997225114E+00  2.483445191816E+00
  2.513246534117E+00  2.543405492527E+00  2.573926358437E+00  2.604813474738E+00
  2.636071236435E+00  2.667704091273E+00  2.699716540368E+00  2.732113138852E+00
  2.764898496518E+00  2.798077278477E+00  2.831654205818E+00  2.865634056288E+00
  2.900021664964E+00  2.934821924943E+00  2.970039788043E+00  3.005680265499E+00
  3.041748428685E+00  3.078249409829E+00  3.115188402747E+00  3.152570663580E+00
  3.190401511543E+00  3.228686329682E+00  3.267430565638E+00  3.306639732426E+00
  3.346319409215E+00  3.386475242125E+00  3.427112945031E+00  3.468238300371E+00
  3.509857159976E+00  3.551975445895E+00  3.594599151246E+00  3.637734341061E+00
  3.681387153154E+00  3.725563798992E+00  3.770270564579E+00  3.815513811354E+00
  3.861299977091E+00  3.907635576816E+00  3.954527203737E+00  4.001981530182E+00
  4.050005308545E+00  4.098605372247E+00  4.147788636714E+00  4.197562100355E+00
  4.247932845559E+00  4.298908039706E+00  4.350494936182E+00  4.402700875416E+00
  4.455533285921E+00  4.508999685352E+00  4.563107681576E+00  4.617864973755E+00
  4.673279353440E+00  4.729358705682E+00  4.786111010150E+00  4.843544342272E+00
  4.901666874379E+00  4.960486876872E+00  5.020012719394E+00  5.080252872027E+00
  5.141215906491E+00  5.202910497369E+00  5.265345423337E+00  5.328529568417E+00
  5.392471923238E+00  5.457181586317E+00  5.522667765353E+00  5.588939778537E+00
  5.656007055880E+00  5.723879140550E+00  5.792565690237E+00  5.862076478520E+00
  5.932421396262E+00  6.003610453017E+00  6.075653778453E+00  6.148561623795E+00
  6.222344363280E+00  6.297012495640E+00  6.372576645587E+00  6.449047565334E+00
  6.526436136118E+00  6.604753369752E+00  6.684010410189E+00  6.764218535111E+00
  6.845389157533E+00  6.927533827423E+00  7.010664233352E+00  7.094792204152E+00
  7.179929710602E+00  7.266088867129E+00  7.353281933535E+00  7.441521316737E+00
  7.530819572538E+00  7.621189407409E+00  7.712643680297E+00  7.805195404461E+00
  7.898857749315E+00  7.993644042306E+00  8.089567770814E+00  8.186642584064E+00
  8.284882295073E+00  8.384300882613E+00  8.484912493205E+00  8.586731443123E+00
  8.689772220441E+00  8.794049487086E+00  8.899578080931E+00  9.006373017902E+00
  9.114449494117E+00  9.223822888046E+00  9.334508762703E+00  9.446522867855E+00
  9.559881142270E+00  9.674599715977E+00  9.790694912569E+00  9.908183251519E+00
  1.002708145054E+01  1.014740642794E+01  1.026917530508E+01  1.039240540874E+01
  1.051711427365E+01  1.064331964493E+01  1.077103948067E+01  1.090029195444E+01
  1.103109545789E+01  1.116346860338E+01  1.129743022662E+01  1.143299938934E+01
  1.157019538202E+01  1.170903772660E+01  1.184954617932E+01  1.199174073347E+01
  1.213564162227E+01  1.228126932174E+01  1.242864455360E+01  1.257778828824E+01
  1.272872174770E+01  1.288146640868E+01  1.303604400558E+01  1.319247653365E+01
  1.335078625205E+01  1.351099568708E+01  1.367312763532E+01  1.383720516694E+01
  1.400325162895E+01  1.417129064849E+01  1.434134613628E+01  1.451344228991E+01
  1.468760359739E+01  1.486385484056E+01  1.504222109865E+01  1.522272775183E+01
  1.540540048485E+01  1.559026529067E+01  1.577734847416E+01  1.596667665585E+01
  1.615827677572E+01  1.635217609703E+01  1.654840221019E+01  1.674698303671E+01
  1.694794683315E+01  1.715132219515E+01  1.735713806149E+01  1.756542371823E+01
  1.777620880285E+01  1.798952330849E+01  1.820539758819E+01  1.842386235925E+01
  1.864494870756E+01  1.886868809205E+01  1.909511234915E+01  1.932425369734E+01
  1.955614474171E+01  1.979081847861E+01  2.002830830035E+01  2.026864799996E+01
  2.051187177596E+01  2.075801423727E+01  2.100711040812E+01  2.125919573301E+01
  2.151430608181E+01  2.177247775479E+01  2.203374748785E+01  2.229815245770E+01
  2.256573028719E+01  2.283651905064E+01  2.311055727925E+01  2.338788396660E+01
  2.366853857420E+01  2.395256103709E+01  2.423999176953E+01  2.453087167077E+01
  2.482524213082E+01  2.512314503639E+01  2.542462277682E+01  2.572971825015E+01
  2.603847486915E+01  2.635093656758E+01  2.666714780639E+01  2.698715358007E+01
  2.731099942303E+01  2.763873141610E+01  2.797039619310E+01  2.830604094741E+01
  2.864571343878E+01  2.898946200005E+01  2.933733554405E+01  2.968938357058E+01
  3.004565617342E+01  3.040620404750E+01  3.077107849607E+01  3.114033143803E+01
  3.151401541528E+01  3.189218360027E+01  3.227488980347E+01  3.266218848111E+01
  3.305413474289E+01  3.345078435980E+01  3.385219377212E+01  3.425842009738E+01
  3.466952113855E+01  3.508555539221E+01  3.550658205692E+01  3.593266104160E+01
  3.636385297410E+01  3.680021920979E+01  3.724182184031E+01  3.768872370239E+01
  3.814098838682E+01  3.859868024746E+01  3.906186441043E+01  3.953060678336E+01
  4.000497406476E+01  4.048503375354E+01  4.097085415858E+01  4.146250440848E+01
  4.196005446138E+01  4.246357511492E+01  4.297313801630E+01  4.348881567249E+01
  4.401068146056E+01
</grid-data>
</grid>
<valence-charge total-charge="14" is-unscreening-charge="yes"
 rescaled-to-z-pseudo="no">
<radfunc>
<data npts="457">
  1.447441672155E-03  1.452496515522E-03  1.473374268612E-03  1.527437636573E-03
  1.650273351181E-03  1.882076703230E-03  2.299360685331E-03  2.944658430494E-03
  3.883405866455E-03  5.262594836030E-03  7.183536699666E-03  9.710713792232E-03
  1.337380868482E-02  1.790861844470E-02  2.315961973818E-02  3.009758953764E-02
  3.926183582935E-02  4.910454698883E-02  6.150652242953E-02  7.712494916073E-02
  9.678135885985E-02  1.160946213149E-01  1.392813078020E-01  1.671003415794E-01
  2.004529848086E-01  2.404074006719E-01  2.882267388519E-01  3.301394110871E-01
  3.780326156322E-01  4.327224694779E-01  4.951274751944E-01  5.662792129998E-01
  6.473336155590E-01  7.395827065359E-01  8.444666293640E-01  9.635857250238E-01
  1.098712334750E+00  1.251801903416E+00  1.364893783313E+00  1.487605826612E+00
  1.620664448893E+00  1.764837027258E+00  1.920931998154E+00  2.089798514117E+00
  2.272325575540E+00  2.469440544073E+00  2.682106934418E+00  2.911321371176E+00
  3.158109587396E+00  3.423521331565E+00  3.708624040632E+00  4.014495128301E+00
  4.342212731122E+00  4.692844750134E+00  5.067436023872E+00  5.466993470184E+00
  5.892469040402E+00  6.344740341170E+00  6.824588797665E+00  7.332675258508E+00
  7.869512978665E+00  8.435437963551E+00  9.030576716963E+00  9.654811508719E+00
  1.030774336652E+01  1.098865310163E+01  1.169646080037E+01  1.206000508024E+01
  1.242968435380E+01  1.280524366983E+01  1.318639775563E+01  1.357282976662E+01
  1.396419007270E+01  1.436009509167E+01  1.476012618127E+01  1.516382860166E+01
  1.557071056157E+01  1.598024236153E+01  1.639185564894E+01  1.680494279993E+01
  1.721885644420E+01  1.763290914919E+01  1.804637328066E+01  1.845848105749E+01
  1.886842481834E+01  1.927535751848E+01  1.967839347510E+01  2.007660937911E+01
  2.046904559153E+01  2.085470774187E+01  2.123256864520E+01  2.160157055389E+01
  2.196062775856E+01  2.230862955127E+01  2.264444356251E+01  2.296691948082E+01
  2.327489316196E+01  2.356719113132E+01  2.384263548018E+01  2.410004915276E+01
  2.433826161713E+01  2.455611490855E+01  2.475247002918E+01  2.492621368296E+01
  2.507626531922E+01  2.520158445257E+01  2.530117822110E+01  2.537410913840E+01
  2.541950298889E+01  2.543655680962E+01  2.542454689523E+01  2.538283675676E+01
  2.531088495900E+01  2.520825275560E+01  2.507461143574E+01  2.490974929216E+01
  2.471357811612E+01  2.448613912253E+01  2.422760820628E+01  2.393830043078E+01
  2.361867365006E+01  2.326933116856E+01  2.289102334653E+01  2.248464806477E+01
  2.205124997006E+01  2.159201843234E+01  2.110828415583E+01  2.060151440036E+01
  2.007330678393E+01  1.952538165544E+01  1.895957304494E+01  1.837781821958E+01
  1.778214589513E+01  1.717466317543E+01  1.655754131588E+01  1.593300042997E+01
  1.530329328171E+01  1.467068832850E+01  1.403745220062E+01  1.340583182211E+01
  1.277803639461E+01  1.215621947905E+01  1.154246141974E+01  1.093875236106E+01
  1.034697610749E+01  9.768895073834E+00  9.206136562609E+00  8.660180590625E+00
  8.132349466205E+00  7.623799292574E+00  7.135513542015E+00  6.668298809943E+00
  6.222782818736E+00  5.799414698909E+00  5.398467530902E+00  5.020043085638E+00
  4.664078657252E+00  4.330355838353E+00  4.018511048112E+00  3.728047587771E+00
  3.458348967964E+00  3.208693228612E+00  2.978267956048E+00  2.766185694000E+00
  2.571499445502E+00  2.393217971769E+00  2.230320611254E+00  2.081771366844E+00
  1.946532040604E+00  1.823574232275E+00  1.711890058572E+00  1.610501493408E+00
  1.518468272938E+00  1.434894351893E+00  1.358932937577E+00  1.289790163497E+00
  1.226727494850E+00  1.169062981992E+00  1.116171495057E+00  1.067484083008E+00
  1.022486603710E+00  9.807177687716E-01  9.417667387876E-01  9.052703922325E-01
  8.709103759552E-01  8.384100281452E-01  8.075312470815E-01  7.780713619685E-01
  7.498600466461E-01  7.227563035987E-01  6.966454827168E-01  6.714361751992E-01
  6.470570780409E-01  6.234542834557E-01  6.005881624214E-01  5.784278083533E-01
  5.569451734407E-01  5.361140794530E-01  5.159108354915E-01  4.963136573825E-01
  4.773025504240E-01  4.588591342922E-01  4.409664843681E-01  4.236089831499E-01
  4.067721814587E-01  3.904426692191E-01  3.746079555629E-01  3.592563579819E-01
  3.443769002344E-01  3.299592186934E-01  3.159934768145E-01  3.024702873829E-01
  2.893806421973E-01  2.767158488391E-01  2.644674741488E-01  2.526272940924E-01
  2.411872496095E-01  2.301394081034E-01  2.194759302095E-01  2.091890414842E-01
  1.992710086627E-01  1.897141201439E-01  1.805106703465E-01  1.716529476416E-01
  1.631332255080E-01  1.549437566191E-01  1.470767695583E-01  1.395244678800E-01
  1.322790312412E-01  1.253326183468E-01  1.186773714606E-01  1.123054222526E-01
  1.062088987630E-01  1.003799332816E-01  9.481067095240E-02  8.949327892958E-02
  8.441995592450E-02  7.958294199687E-02  7.497452845771E-02  7.058706776466E-02
  6.641298330325E-02  6.244477896027E-02  5.867504840754E-02  5.509648402586E-02
  5.170188540969E-02  4.848416740382E-02  4.543636763037E-02  4.255165348752E-02
  3.982332857474E-02  3.724483855326E-02  3.480977642277E-02  3.251188721519E-02
  3.034507210904E-02  2.830339197297E-02  2.638107035045E-02  2.457249590080E-02
  2.287222431444E-02  2.127497972168E-02  1.977565561616E-02  1.836931531441E-02
  1.705119197396E-02  1.581668819226E-02  1.466137520862E-02  1.358099173147E-02
  1.257144241252E-02  1.162879598933E-02  1.074928311741E-02  9.929293912718E-03
  9.165375225107E-03  8.454227663291E-03  7.792702391716E-03  7.177797719742E-03
  6.606655503558E-03  6.076557381274E-03  5.584920861628E-03  5.129295286719E-03
  4.707357689060E-03  4.316908563032E-03  3.955867570538E-03  3.622269200181E-03
  3.314258398800E-03  3.030086193468E-03  2.768105321291E-03  2.526765883443E-03
  2.304611038860E-03  2.100272751946E-03  1.912467607478E-03  1.739992704723E-03
  1.581721641518E-03  1.436600597856E-03  1.303644527237E-03  1.181933462856E-03
  1.070608944465E-03  9.688705706016E-04  8.759726797719E-04  7.912211631035E-04
  7.139704100041E-04  6.436203874355E-04  5.796138525608E-04  5.214336977427E-04
  4.686004261739E-04  4.206697557918E-04  3.772303485844E-04  3.379016619249E-04
  3.023319181725E-04  2.701961884616E-04  2.411945863430E-04  2.150505667640E-04
  1.915093257493E-04  1.703362960868E-04  1.513157343125E-04  1.342493943308E-04
  1.189552830881E-04  1.052664938353E-04  9.303011265583E-05  8.210619413287E-05
  7.236680211765E-05  6.369511197407E-05  5.598457060694E-05  4.913811080634E-05
  4.306741707469E-05  3.769223976001E-05  3.293975456594E-05  2.874396503059E-05
  2.504514548551E-05  2.178932214224E-05  1.892779015487E-05  1.641666461967E-05
  1.421646358236E-05  1.229172122787E-05  1.061062952097E-05  9.144706650986E-06
  7.868490711673E-06  6.759257118017E-06  5.796758328049E-06  4.962984498986E-06
  4.241943765154E-06  3.619460880406E-06  3.082993020927E-06  2.621461595922E-06
  2.225098964056E-06  1.885309003048E-06  1.594540528636E-06  1.346172607414E-06
  1.134410855786E-06  9.541938645618E-07  8.011089354170E-07  6.713163614866E-07
  5.614815296865E-07  4.687141667805E-07  3.905140946444E-07  3.247229024598E-07
  2.694809845922E-07  2.231894325357E-07  1.844763074445E-07  1.521668563175E-07
  1.252572697918E-07  1.028916126654E-07  8.434158967357E-08  6.898883866420E-08
  5.630947114351E-08  4.586060620511E-08  3.726866813683E-08  3.021924055171E-08
  2.444829076063E-08  1.973459734950E-08  1.589323160605E-08  1.276995963051E-08
  1.023644673557E-08  8.186159170605E-09  6.530870375848E-09  5.197689962425E-09
  4.126543507441E-09  3.268040128649E-09  2.581672739686E-09  2.034302960718E-09
  1.598888943911E-09  1.253419938669E-09  9.800263345545E-10  7.642382429019E-10
  5.943694702128E-10  4.610070520516E-10  3.565894061576E-10  2.750586744693E-10
  2.115749985691E-10  1.622823507453E-10  1.241171589090E-10  9.465235003531E-11
  7.197062247987E-11  5.456176827879E-11  4.123972543104E-11  3.107576765973E-11
  2.334485336520E-11  1.748267237711E-11  1.305136268778E-11  9.712231842418E-12
  7.204119726738E-12  5.326290366619E-12  3.924948015835E-12  2.882644120426E-12
  2.109982594625E-12  1.539146244934E-12  1.118861406214E-12  8.104945238545E-13
  5.850365814179E-13  4.207814989955E-13  3.015450618703E-13  2.153033731706E-13
  1.531557461019E-13  1.085375922827E-13  7.662523743546E-14  5.388753714864E-14
  3.774935465888E-14  2.633995389704E-14  1.830560641967E-14  1.267056384148E-14
  8.734324045800E-15  5.996015737162E-15  4.098969024854E-15  2.790248964387E-15
  1.891234974936E-15  1.276320483264E-15  8.575568547668E-16  5.736301695919E-16
  3.819826036947E-16  2.532060597625E-16  1.670704315533E-16  1.097225419852E-16
  7.171968290417E-17  4.665543454067E-17  3.020384933778E-17  1.945776526300E-17
  1.247292316605E-17  7.955393930576E-18  5.048312519215E-18  3.187088003058E-18
  2.001595879215E-18  1.250439658884E-18  0.000000000000E+00  0.000000000000E+00
  0.000000000000E+00  0.000000000000E+00  0.000000000000E+00  0.000000000000E+00
  0.000000000000E+00  0.000000000000E+00  0.000000000000E+00  0.000000000000E+00
  0.000000000000E+00  0.000000000000E+00  0.000000000000E+00  0.000000000000E+00
  0.000000000000E+00  0.000000000000E+00  0.000000000000E+00  0.000000000000E+00
  0.000000000000E+00
</data>
</radfunc>
</valence-charge>
<pseudocore-charge matching-radius="0.684792869282"
 number-of-continuous-derivatives="4">
<annotation model-charge-form="Teter function with specified parameters" />
<radfunc>
<data npts="290">
  1.287072865996E+02  1.286961127791E+02  1.286627119066E+02  1.286069925569E+02
  1.285252446447E+02  1.284209571928E+02  1.282880763049E+02  1.281359603574E+02
  1.279649785414E+02  1.277656619404E+02  1.275410951485E+02  1.272971232948E+02
  1.270024319586E+02  1.266948474811E+02  1.263877728028E+02  1.260343070375E+02
  1.256275950657E+02  1.252423859821E+02  1.248096991318E+02  1.243238713557E+02
  1.237786146428E+02  1.232949622218E+02  1.227649257008E+02  1.221842811061E+02
  1.215484668767E+02  1.208525670176E+02  1.200912958145E+02  1.194740472447E+02
  1.188143109252E+02  1.181094251531E+02  1.173566019173E+02  1.165529274778E+02
  1.156953642908E+02  1.147807545292E+02  1.138058254765E+02  1.127671971087E+02
  1.116613922070E+02  1.104848493832E+02  1.096593986657E+02  1.087998088370E+02
  1.079049854586E+02  1.069738312074E+02  1.060052498176E+02  1.049981504864E+02
  1.039514527762E+02  1.028640920451E+02  1.017350254373E+02  1.005632384644E+02
  9.934775220848E+01  9.808763117464E+01  9.678199181915E+01  9.543001177596E+01
  9.403093980019E+01  9.258410644157E+01  9.108893545487E+01  8.954495594619E+01
  8.795181524476E+01  8.630929247893E+01  8.461731282242E+01  8.287596236186E+01
  8.108550352042E+01  7.924639095274E+01  7.735928780571E+01  7.542508221580E+01
  7.344490388774E+01  7.142014057131E+01  6.935245422250E+01  6.830311310537E+01
  6.724379660321E+01  6.617479639068E+01  6.509642403952E+01  6.400901141130E+01
  6.291291102364E+01  6.180849638705E+01  6.069616230906E+01  5.957632516227E+01
  5.844942311291E+01  5.731591630628E+01  5.617628700534E+01  5.503103967869E+01
  5.388070103398E+01  5.272581999288E+01  5.156696760339E+01  5.040473688561E+01
  4.923974260670E+01  4.807262098109E+01  4.690402929157E+01  4.573464542756E+01
  4.456516733636E+01  4.339631238352E+01  4.222881661882E+01  4.106343394406E+01
  3.990093517952E+01  3.874210702604E+01  3.758775091987E+01  3.643868177800E+01
  3.529572663197E+01  3.415972314865E+01  3.303151803695E+01  3.191196534014E+01
  3.080192461381E+01  2.970225899051E+01  2.861383313265E+01  2.753751107608E+01
  2.647415396766E+01  2.542461770107E+01  2.438975045605E+01  2.337039014724E+01
  2.236736179004E+01  2.138147479173E+01  2.041352017762E+01  1.946426776279E+01
  1.853446328152E+01  1.762482548748E+01  1.673604323911E+01  1.586877258572E+01
  1.502363387115E+01  1.420120887269E+01  1.340203799448E+01  1.262661753508E+01
  1.187539705018E+01  1.114877683210E+01  1.044710552827E+01  9.770677921569E+00
  9.119732895446E+00  8.494451607152E+00  7.894955892036E+00  7.321306921630E+00
  6.773504137555E+00  6.251484482396E+00  5.755121947406E+00  5.284227455415E+00
  4.838549095395E+00  4.417772722923E+00  4.021522938232E+00  3.649364450616E+00
  3.300803834738E+00  2.975291680796E+00  2.672225136673E+00  2.390950836040E+00
  2.130768201999E+00  1.890933111306E+00  1.670661899478E+00  1.469135682295E+00
  1.285504964413E+00  1.118894501017E+00  9.684083738785E-01  8.331352387778E-01
  7.121536972099E-01  6.045377416919E-01  5.093622208687E-01  4.257082681642E-01
  3.526686359619E-01  2.893528763701E-01  2.348923095790E-01  1.884447217404E-01
  1.491987362478E-01  1.163778053018E-01  8.924377273130E-02  6.709996420813E-02
  4.929376719565E-02  3.521867016330E-02  2.431573868254E-02  1.607451487514E-02
  1.003333616268E-02  5.779079183899E-03  2.946344896707E-03  1.216111032579E-03
  3.138879709734E-04  7.423487401134E-06  1.040104305487E-04  4.474589349247E-04
  9.148010208362E-04  1.412800140238E-03  1.874341194588E-03  2.254777621331E-03
  2.528311213472E-03  2.684477357450E-03  2.724803372046E-03  2.659700702552E-03
  2.505643042716E-03  2.282672269939E-03  2.012262705230E-03  1.715562029608E-03
  1.412014634780E-03  1.118360724845E-03  8.479926007051E-04  6.106387273703E-04
  4.123368552978E-04  2.556500360319E-04  1.400741589235E-04  6.258286092324E-05
  1.825543107800E-05  9.356232036367E-07  3.873948290439E-06  2.031275490205E-05
  4.398181239029E-05  6.948167753336E-05  9.254226524343E-05  1.101541336714E-04
  1.205794091228E-04  1.232574356516E-04  1.186266427614E-04  1.078884117351E-04
  9.274067251435E-05  7.510854197026E-05  5.689666923989E-05  3.978341052216E-05
  2.507099439143E-05  1.359905475796E-05  5.721961517409E-06  1.343931931287E-06
  5.623368527214E-10  9.716629700983E-07  3.408420169326E-06  6.458055271471E-06
  9.371183107014E-06  1.158067034020E-05  1.274545577266E-05  1.275790525101E-05
  1.171817491471E-05  9.883130653777E-06  7.600122415928E-06  5.237031469052E-06
  3.119421112660E-06  1.483495275771E-06  4.502948834957E-07  2.269286540229E-08
  0.000000000000E+00  0.000000000000E+00  0.000000000000E+00  0.000000000000E+00
  0.000000000000E+00  0.000000000000E+00  0.000000000000E+00  0.000000000000E+00
  0.000000000000E+00  0.000000000000E+00  0.000000000000E+00  0.000000000000E+00
  0.000000000000E+00  0.000000000000E+00  0.000000000000E+00  0.000000000000E+00
  0.000000000000E+00  0.000000000000E+00  0.000000000000E+00  0.000000000000E+00
  0.000000000000E+00  0.000000000000E+00  0.000000000000E+00  0.000000000000E+00
  0.000000000000E+00  0.000000000000E+00  0.000000000000E+00  0.000000000000E+00
  0.000000000000E+00  0.000000000000E+00  0.000000000000E+00  0.000000000000E+00
  0.000000000000E+00  0.000000000000E+00  0.000000000000E+00  0.000000000000E+00
  0.000000000000E+00  0.000000000000E+00  0.000000000000E+00  0.000000000000E+00
  0.000000000000E+00  0.000000000000E+00  0.000000000000E+00  0.000000000000E+00
  0.000000000000E+00  0.000000000000E+00  0.000000000000E+00  0.000000000000E+00
  0.000000000000E+00  0.000000000000E+00  0.000000000000E+00  0.000000000000E+00
  0.000000000000E+00  0.000000000000E+00  0.000000000000E+00  0.000000000000E+00
  0.000000000000E+00  0.000000000000E+00  0.000000000000E+00  0.000000000000E+00
  0.000000000000E+00  0.000000000000E+00
</data>
</radfunc>
</pseudocore-charge>
<semilocal-potentials set="scalar_relativistic">
<slps n="4" l="s" rc="1.91021963455" eref="-0.431574903220">
<radfunc>
<data npts="290">
  7.558919245613E+01  7.551927549010E+01  7.531087163005E+01  7.496518230391E+01
  7.446241892795E+01  7.382853179405E+01  7.303278392610E+01  7.213787526631E+01
  7.115183135864E+01  7.002807062129E+01  6.879390456843E+01  6.748996390471E+01
  6.596389221619E+01  6.442543213737E+01  6.294211888884E+01  6.129633411026E+01
  5.947956697967E+01  5.783021087282E+01  5.605515690517E+01  5.415355626792E+01
  5.212636038426E+01  5.041610624884E+01  4.862988050425E+01  4.677118015333E+01
  4.484447949619E+01  4.285522987914E+01  4.080983323887E+01  3.924329810747E+01
  3.765265299434E+01  3.604151503700E+01  3.441370456775E+01  3.277321131317E+01
  3.112415715108E+01  2.947075615409E+01  2.781727274793E+01  2.616797888333E+01
  2.452711115940E+01  2.289882884035E+01  2.182230110220E+01  2.075432713326E+01
  1.969603238651E+01  1.864850280067E+01  1.761278093001E+01  1.658986247604E+01
  1.558069324332E+01  1.458616653625E+01  1.360712100723E+01  1.264433896114E+01
  1.169854511504E+01  1.077040580694E+01  9.860528642316E+00  8.969462562240E+00
  8.097698313366E+00  7.245669295893E+00  6.413752762913E+00  5.602271341873E+00
  4.811494846979E+00  4.041642349893E+00  3.292884475183E+00  2.565345886508E+00
  1.859107929557E+00  1.174211398131E+00  5.106593905556E-01 -1.315797753541E-01
 -7.525696192153E-01 -1.352402555862E+00 -1.931196981391E+00 -2.212748150217E+00
 -2.489094413298E+00 -2.760256616649E+00 -3.026256709080E+00 -3.287117661184E+00
 -3.542863386429E+00 -3.793518664529E+00 -4.039109067254E+00 -4.279660886862E+00
 -4.515201067306E+00 -4.745757138422E+00 -4.971357153258E+00 -5.192029628733E+00
 -5.407803489847E+00 -5.618708017621E+00 -5.824772800999E+00 -6.026027692942E+00
 -6.222502770939E+00 -6.414228302211E+00 -6.601234713854E+00 -6.783552568210E+00
 -6.961212543753E+00 -7.134245421795E+00 -7.302682079318E+00 -7.466553488245E+00
 -7.625890721471E+00 -7.780724965965E+00 -7.931087543225E+00 -8.077009937394E+00
 -8.218523831239E+00 -8.355661150230E+00 -8.488454114823E+00 -8.616935301017E+00
 -8.741137709140E+00 -8.861094840692E+00 -8.976840782950E+00 -9.088410300847E+00
 -9.195838935489E+00 -9.299163108435E+00 -9.398420230666E+00 -9.493648814936E+00
 -9.584888589968E+00 -9.672180614714E+00 -9.755567390727E+00 -9.835092970444E+00
 -9.910803059081E+00 -9.982745107707E+00 -1.005096839499E+01 -1.011552409516E+01
 -1.017646532973E+01 -1.023384720071E+01 -1.028772680320E+01 -1.033816321549E+01
 -1.038521746498E+01 -1.042895246878E+01 -1.046943294778E+01 -1.050672531346E+01
 -1.054089752706E+01 -1.057201893038E+01 -1.060016004824E+01 -1.062539236192E+01
 -1.064778805312E+01 -1.066741971763E+01 -1.068436004729E+01 -1.069868147851E+01
 -1.071045580474E+01 -1.071975374984E+01 -1.072664449817E+01 -1.073119517720E+01
 -1.073347028735E+01 -1.073353107442E+01 -1.073143484026E+01 -1.072723418932E+01
 -1.072097621173E+01 -1.071270160883E+01 -1.070244377449E+01 -1.069022785599E+01
 -1.067606983113E+01 -1.065997565443E+01 -1.064194054206E+01 -1.062194848220E+01
 -1.059997207037E+01 -1.057597277536E+01 -1.054990173478E+01 -1.052170115727E+01
 -1.049130636711E+01 -1.045864846679E+01 -1.042365751684E+01 -1.038626604672E+01