<?xml version="1.0" encoding="UTF-8" ?>
<psml version="1.1" energy_unit="hartree" length_unit="bohr"
 uuid="814c16f0-1d65-11e8-4584-ee27e7efc30f"
 xmlns="http://esl.cecam.org/PSML/ns/1.1">
<provenance creator="ONCVPSP-3.3.0+psml-3.3.0-73 (scalar-relativistic)"
 date="2018-03-01">
<annotation action="semilocal-pseudopotential-generation"
 action-cont="projectors-generation" />
<input-file name="oncvpsp-input">
<![CDATA[# atsym z nc nv iexc psfile
Ge 32 3 5 -116133 upf
# n l f
1 0 2.0
2 0 2.0
2 1 6.0
3 0 2.0
3 1 6.0
3 2 10.0
4 0 2.0
4 1 2.0
# lmax
2
# l rc ep ncon nbas qcut
0 1.2 0.0 4 7 9.6
1 1.3 0.0 4 7 10.5
2 1.5 0.0 4 7 11.0
# lloc lpopt rc5 dvloc0
4 5 1.2 0.0
# l nproj debl
0 2 1.0
1 2 1.5
2 2 3.0
# icmod fcfact rcfact
3 3.0 1.5
# epsh1 epsh2 depsh
-12.0 12.0 0.02
# rlmax drl
6.0 0.01
 0
]]>
</input-file>
</provenance>
<pseudo-atom-spec atomic-label="Ge" atomic-number="32" z-pseudo="22"
 flavor="Hamann&apos;s oncvpsp" relativity="scalar" spin-dft="no"
 core-corrections="yes">
<annotation pseudo-energy="-276.207367288" />
<exchange-correlation>
<annotation oncvpsp-xc-code="-116133" oncvpsp-xc-type="libxc-interface" />
<libxc-info number-of-functionals="2">
<functional name="Perdew, Burke &amp; Ernzerhof SOL (GGA)" type="exchange"
 id="116" />
<functional name="Perdew, Burke &amp; Ernzerhof SOL (GGA)" type="correlation"
 id="133" />
</libxc-info>
</exchange-correlation>
<valence-configuration total-valence-charge="22">
<shell n="3" l="s" occupation="2" />
<shell n="3" l="p" occupation="6" />
<shell n="3" l="d" occupation="10" />
<shell n="4" l="s" occupation="2" />
<shell n="4" l="p" occupation="2" />
</valence-configuration>
</pseudo-atom-spec>
<grid npts="457">
<annotation type="sampled from oncvpsp log grid"
 recipe="r(i:1..N) = r1*exp(a*(i-1)) + r=0; resampled"
 recipe-cont="r1: scale; a: step" scale="0.156250000000E-04"
 step="0.119285708653E-01" delta="0.500000000000E-02" rmax="44.0106814606" />
<grid-data>
  0.000000000000E+00  5.025601837514E-03  1.003824527536E-02  1.505896861607E-02
  2.029121445031E-02  2.545292972101E-02  3.080533800935E-02  3.597266729221E-02
  4.101646976877E-02  4.621291924683E-02  5.145031239924E-02  5.660204419540E-02
  6.226962009944E-02  6.769238310509E-02  7.271481084123E-02  7.810987696307E-02
  8.390522932815E-02  8.906182522060E-02  9.453533200659E-02  1.003452262006E-01
  1.065121812926E-01  1.117175309401E-01  1.171772708801E-01  1.229038334035E-01
  1.289102583787E-01  1.352102229449E-01  1.418180726557E-01  1.469850337403E-01
  1.523402464797E-01  1.578905695834E-01  1.636431116494E-01  1.696052402683E-01
  1.757845914596E-01  1.821890794514E-01  1.888269068167E-01  1.957065749787E-01
  2.028368950993E-01  2.102269993637E-01  2.153027200364E-01  2.205009889089E-01
  2.258247647852E-01  2.312770779061E-01  2.368610316751E-01  2.425798044239E-01
  2.484366512219E-01  2.544349057290E-01  2.605779820929E-01  2.668693768925E-01
  2.733126711282E-01  2.799115322600E-01  2.866697162948E-01  2.935910699251E-01
  3.006795327173E-01  3.079391393553E-01  3.153740219359E-01  3.229884123215E-01
  3.307866445486E-01  3.387731572945E-01  3.469524964043E-01  3.553293174774E-01
  3.639083885186E-01  3.726945926510E-01  3.816929308960E-01  3.909085250195E-01
  4.003466204476E-01  4.100125892517E-01  4.199119332066E-01  4.249508764051E-01
  4.300502869219E-01  4.352108903650E-01  4.404334210494E-01  4.457186221020E-01
  4.510672455672E-01  4.564800525140E-01  4.619578131442E-01  4.675013069019E-01
  4.731113225847E-01  4.787886584557E-01  4.845341223572E-01  4.903485318255E-01
  4.962327142074E-01  5.021875067779E-01  5.082137568592E-01  5.143123219415E-01
  5.204840698048E-01  5.267298786425E-01  5.330506371862E-01  5.394472448324E-01
  5.459206117704E-01  5.524716591117E-01  5.591013190210E-01  5.658105348493E-01
  5.726002612674E-01  5.794714644027E-01  5.864251219755E-01  5.934622234392E-01
  6.005837701205E-01  6.077907753619E-01  6.150842646662E-01  6.224652758422E-01
  6.299348591524E-01  6.374940774622E-01  6.451440063917E-01  6.528857344684E-01
  6.607203632820E-01  6.686490076414E-01  6.766727957331E-01  6.847928692819E-01
  6.930103837133E-01  7.013265083179E-01  7.097424264177E-01  7.182593355347E-01
  7.268784475611E-01  7.356009889318E-01  7.444282007990E-01  7.533613392086E-01
  7.624016752791E-01  7.715504953825E-01  7.808091013271E-01  7.901788105430E-01
  7.996609562695E-01  8.092568877447E-01  8.189679703977E-01  8.287955860424E-01
  8.387411330750E-01  8.488060266719E-01  8.589916989919E-01  8.692995993798E-01
  8.797311945724E-01  8.902879689072E-01  9.009714245341E-01  9.117830816285E-01
  9.227244786081E-01  9.337971723514E-01  9.450027384196E-01  9.563427712806E-01
  9.678188845360E-01  9.794327111504E-01  9.911859036842E-01  1.003080134528E+00
  1.015117096143E+00  1.027298501296E+00  1.039626083312E+00  1.052101596312E+00
  1.064726815468E+00  1.077503537253E+00  1.090433579700E+00  1.103518782657E+00
  1.116761008048E+00  1.130162140145E+00  1.143724085827E+00  1.157448774857E+00
  1.171338160155E+00  1.185394218077E+00  1.199618948694E+00  1.214014376078E+00
  1.228582548591E+00  1.243325539174E+00  1.258245445644E+00  1.273344390992E+00
  1.288624523684E+00  1.304088017968E+00  1.319737074184E+00  1.335573919074E+00
  1.351600806103E+00  1.367820015776E+00  1.384233855965E+00  1.400844662237E+00
  1.417654798184E+00  1.434666655762E+00  1.451882655631E+00  1.469305247499E+00
  1.486936910469E+00  1.504780153394E+00  1.522837515235E+00  1.541111565418E+00
  1.559604904203E+00  1.578320163053E+00  1.597260005010E+00  1.616427125070E+00
  1.635824250571E+00  1.655454141578E+00  1.675319591277E+00  1.695423426372E+00
  1.715768507488E+00  1.736357729578E+00  1.757194022333E+00  1.778280350601E+00
  1.799619714808E+00  1.821215151386E+00  1.843069733203E+00  1.865186570001E+00
  1.887568808841E+00  1.910219634547E+00  1.933142270162E+00  1.956339977404E+00
  1.979816057133E+00  2.003573849818E+00  2.027616736016E+00  2.051948136848E+00
  2.076571514490E+00  2.101490372664E+00  2.126708257136E+00  2.152228756222E+00
  2.178055501297E+00  2.204192167312E+00  2.230642473320E+00  2.257410183000E+00
  2.284499105196E+00  2.311913094458E+00  2.339656051592E+00  2.367731924211E+00
  2.396144707301E+00  2.424898443789E+00  2.453997225114E+00  2.483445191816E+00
  2.513246534117E+00  2.543405492527E+00  2.573926358437E+00  2.604813474738E+00
  2.636071236435E+00  2.667704091273E+00  2.699716540368E+00  2.732113138852E+00
  2.764898496518E+00  2.798077278477E+00  2.831654205818E+00  2.865634056288E+00
  2.900021664964E+00  2.934821924943E+00  2.970039788043E+00  3.005680265499E+00
  3.041748428685E+00  3.078249409829E+00  3.115188402747E+00  3.152570663580E+00
  3.190401511543E+00  3.228686329682E+00  3.267430565638E+00  3.306639732426E+00
  3.346319409215E+00  3.386475242125E+00  3.427112945031E+00  3.468238300371E+00
  3.509857159976E+00  3.551975445895E+00  3.594599151246E+00  3.637734341061E+00
  3.681387153154E+00  3.725563798992E+00  3.770270564579E+00  3.815513811354E+00
  3.861299977091E+00  3.907635576816E+00  3.954527203737E+00  4.001981530182E+00
  4.050005308545E+00  4.098605372247E+00  4.147788636714E+00  4.197562100355E+00
  4.247932845559E+00  4.298908039706E+00  4.350494936182E+00  4.402700875416E+00
  4.455533285921E+00  4.508999685352E+00  4.563107681576E+00  4.617864973755E+00
  4.673279353440E+00  4.729358705682E+00  4.786111010150E+00  4.843544342272E+00
  4.901666874379E+00  4.960486876872E+00  5.020012719394E+00  5.080252872027E+00
  5.141215906491E+00  5.202910497369E+00  5.265345423337E+00  5.328529568417E+00
  5.392471923238E+00  5.457181586317E+00  5.522667765353E+00  5.588939778537E+00
  5.656007055880E+00  5.723879140550E+00  5.792565690237E+00  5.862076478520E+00
  5.932421396262E+00  6.003610453017E+00  6.075653778453E+00  6.148561623795E+00
  6.222344363280E+00  6.297012495640E+00  6.372576645587E+00  6.449047565334E+00
  6.526436136118E+00  6.604753369752E+00  6.684010410189E+00  6.764218535111E+00
  6.845389157533E+00  6.927533827423E+00  7.010664233352E+00  7.094792204152E+00
  7.179929710602E+00  7.266088867129E+00  7.353281933535E+00  7.441521316737E+00
  7.530819572538E+00  7.621189407409E+00  7.712643680297E+00  7.805195404461E+00
  7.898857749315E+00  7.993644042306E+00  8.089567770814E+00  8.186642584064E+00
  8.284882295073E+00  8.384300882613E+00  8.484912493205E+00  8.586731443123E+00
  8.689772220441E+00  8.794049487086E+00  8.899578080931E+00  9.006373017902E+00
  9.114449494117E+00  9.223822888046E+00  9.334508762703E+00  9.446522867855E+00
  9.559881142270E+00  9.674599715977E+00  9.790694912569E+00  9.908183251519E+00
  1.002708145054E+01  1.014740642794E+01  1.026917530508E+01  1.039240540874E+01
  1.051711427365E+01  1.064331964493E+01  1.077103948067E+01  1.090029195444E+01
  1.103109545789E+01  1.116346860338E+01  1.129743022662E+01  1.143299938934E+01
  1.157019538202E+01  1.170903772660E+01  1.184954617932E+01  1.199174073347E+01
  1.213564162227E+01  1.228126932174E+01  1.242864455360E+01  1.257778828824E+01
  1.272872174770E+01  1.288146640868E+01  1.303604400558E+01  1.319247653365E+01
  1.335078625205E+01  1.351099568708E+01  1.367312763532E+01  1.383720516694E+01
  1.400325162895E+01  1.417129064849E+01  1.434134613628E+01  1.451344228991E+01
  1.468760359739E+01  1.486385484056E+01  1.504222109865E+01  1.522272775183E+01
  1.540540048485E+01  1.559026529067E+01  1.577734847416E+01  1.596667665585E+01
  1.615827677572E+01  1.635217609703E+01  1.654840221019E+01  1.674698303671E+01
  1.694794683315E+01  1.715132219515E+01  1.735713806149E+01  1.756542371823E+01
  1.777620880285E+01  1.798952330849E+01  1.820539758819E+01  1.842386235925E+01
  1.864494870756E+01  1.886868809205E+01  1.909511234915E+01  1.932425369734E+01
  1.955614474171E+01  1.979081847861E+01  2.002830830035E+01  2.026864799996E+01
  2.051187177596E+01  2.075801423727E+01  2.100711040812E+01  2.125919573301E+01
  2.151430608181E+01  2.177247775479E+01  2.203374748785E+01  2.229815245770E+01
  2.256573028719E+01  2.283651905064E+01  2.311055727925E+01  2.338788396660E+01
  2.366853857420E+01  2.395256103709E+01  2.423999176953E+01  2.453087167077E+01
  2.482524213082E+01  2.512314503639E+01  2.542462277682E+01  2.572971825015E+01
  2.603847486915E+01  2.635093656758E+01  2.666714780639E+01  2.698715358007E+01
  2.731099942303E+01  2.763873141610E+01  2.797039619310E+01  2.830604094741E+01
  2.864571343878E+01  2.898946200005E+01  2.933733554405E+01  2.968938357058E+01
  3.004565617342E+01  3.040620404750E+01  3.077107849607E+01  3.114033143803E+01
  3.151401541528E+01  3.189218360027E+01  3.227488980347E+01  3.266218848111E+01
  3.305413474289E+01  3.345078435980E+01  3.385219377212E+01  3.425842009738E+01
  3.466952113855E+01  3.508555539221E+01  3.550658205692E+01  3.593266104160E+01
  3.636385297410E+01  3.680021920979E+01  3.724182184031E+01  3.768872370239E+01
  3.814098838682E+01  3.859868024746E+01  3.906186441043E+01  3.953060678336E+01
  4.000497406476E+01  4.048503375354E+01  4.097085415858E+01  4.146250440848E+01
  4.196005446138E+01  4.246357511492E+01  4.297313801630E+01  4.348881567249E+01
  4.401068146056E+01
</grid-data>
</grid>
<valence-charge total-charge="22" is-unscreening-charge="yes"
 rescaled-to-z-pseudo="no">
<radfunc>
<data npts="457">
  3.535697391071E+01  3.537184972801E+01  3.541631279860E+01  3.549047370801E+01
  3.559924976272E+01  3.573796865549E+01  3.591464125415E+01  3.611677660603E+01
  3.634383780320E+01  3.660833272813E+01  3.690608029859E+01  3.722924567409E+01
  3.761915420306E+01  3.802559772623E+01  3.843082203539E+01  3.889657510041E+01
  3.943155293637E+01  3.993729870034E+01  4.050424955998E+01  4.113936771608E+01
  4.185027674104E+01  4.247913223927E+01  4.316636822008E+01  4.391683543905E+01
  4.473565288105E+01  4.562818692836E+01  4.660001810179E+01  4.738438215612E+01
  4.821904409896E+01  4.910647695969E+01  5.004913690628E+01  5.104943070780E+01
  5.210967618760E+01  5.323205458269E+01  5.441855361429E+01  5.567089996969E+01
  5.699047980363E+01  5.837824579885E+01  5.934153337141E+01  6.033528553443E+01
  6.135931600838E+01  6.241326915403E+01  6.349659835750E+01  6.460854267448E+01
  6.574810170830E+01  6.691400872227E+01  6.810470201866E+01  6.931829465706E+01
  7.055254263242E+01  7.180481169151E+01  7.307204303460E+01  7.435071822892E+01
  7.563682375286E+01  7.692581569501E+01  7.821258525072E+01  7.949142579089E+01
  8.075600242248E+01  8.199932511695E+01  8.321372664872E+01  8.439084675833E+01
  8.552162412978E+01  8.659629794206E+01  8.760442091455E+01  8.853488590434E+01
  8.937596821953E+01  9.011538587263E+01  9.074037999583E+01  9.100587547883E+01
  9.123781755787E+01  9.143452696861E+01  9.159431834072E+01  9.171550560501E+01
  9.179640783275E+01  9.183535551065E+01  9.183069725225E+01  9.178080694297E+01
  9.168409131221E+01  9.153899792182E+01  9.134402355573E+01  9.109772299023E+01
  9.079871811972E+01  9.044570740631E+01  9.003747561622E+01  8.957290379918E+01
  8.905097946085E+01  8.847080687092E+01  8.783161744321E+01  8.713278011646E+01
  8.637381165795E+01  8.555438680477E+01  8.467434815098E+01  8.373371568262E+01
  8.273269585627E+01  8.167169011167E+01  8.055130270447E+01  7.937234774109E+01
  7.813585529530E+01  7.684307648491E+01  7.549548738648E+01  7.409479166813E+01
  7.264292182366E+01  7.114203889638E+01  6.959453058863E+01  6.800300766215E+01
  6.637029854658E+01  6.469944208700E+01  6.299367837814E+01  6.125643765149E+01
  5.949132720247E+01  5.770211636795E+01  5.589271958959E+01  5.406717762485E+01
  5.222963699617E+01  5.038432779744E+01  4.853554000707E+01  4.668759848631E+01
  4.484483687120E+01  4.301157059405E+01  4.119206929741E+01  3.939052892661E+01
  3.761104380803E+01  3.585757903677E+01  3.413394350954E+01  3.244376394524E+01
  3.079046023704E+01  2.917722247406E+01  2.760698995904E+01  2.608243252941E+01
  2.460593446331E+01  2.317958121944E+01  2.180514922057E+01  2.048409884537E+01
  1.921757074287E+01  1.800638552940E+01  1.685104687022E+01  1.575174788879E+01
  1.470838078660E+01  1.372054949862E+01  1.278758515356E+01  1.190856405734E+01
  1.108232787327E+01  1.030750563491E+01  9.582537199119E+00  8.905697727381E+00
  8.275122775169E+00  7.688833570716E+00  7.144762077207E+00  6.640775454902E+00
  6.174699571528E+00  5.744341249134E+00  5.347508981946E+00  4.982031910866E+00
  4.645776894189E+00  4.336663568809E+00  4.052677349794E+00  3.791880366710E+00
  3.552420523351E+00  3.332539099613E+00  3.130576559586E+00  2.944975424188E+00
  2.774281724334E+00  2.617144961998E+00  2.472316482290E+00  2.338645299001E+00
  2.215072738111E+00  2.100630457726E+00  1.994437779509E+00  1.895698535359E+00
  1.803697470799E+00  1.717796265821E+00  1.637429227909E+00  1.562098701111E+00
  1.491370229179E+00  1.424867507458E+00  1.362265336231E+00  1.303275509760E+00
  1.247630759938E+00  1.195081548265E+00  1.145397313774E+00  1.098364407713E+00
  1.053785296676E+00  1.011477605016E+00  9.712732023035E-01  9.330173205637E-01
  8.965677021380E-01  8.617937792323E-01  8.285758859282E-01  7.968045032423E-01
  7.663795376143E-01  7.372096330060E-01  7.092115166063E-01  6.823093779611E-01
  6.564342811817E-01  6.315236097518E-01  6.075205432339E-01  5.843735652747E-01
  5.620360019276E-01  5.404655894368E-01  5.196240704784E-01  4.994768178167E-01
  4.799924842932E-01  4.611426780407E-01  4.429016617990E-01  4.252460751996E-01
  4.081546788923E-01  3.916081193900E-01  3.755887135254E-01  3.600802514316E-01
  3.450678169790E-01  3.305376246315E-01  3.164768717087E-01  3.028736050759E-01
  2.897166013140E-01  2.769952594554E-01  2.646995054080E-01  2.528197072218E-01
  2.413466003923E-01  2.302712224260E-01  2.195848559328E-01  2.092789795438E-01
  1.993452259868E-01  1.897753466933E-01  1.805611823214E-01  1.716946386625E-01
  1.631676673706E-01  1.549722510275E-01  1.471003920741E-01  1.395441051688E-01
  1.322954125635E-01  1.253463421172E-01  1.186889275941E-01  1.123152109178E-01
  1.062172460817E-01  1.003871044380E-01  9.481688111137E-02  8.949870230664E-02
  8.442473329988E-02  7.958718692453E-02  7.497833238180E-02  7.059050422404E-02
  6.641611137698E-02  6.244764608308E-02  5.867769266380E-02  5.509893601304E-02
  5.170416974774E-02  4.848630395379E-02  4.543837247528E-02  4.255353971932E-02
  3.982510692354E-02  3.724651788869E-02  3.481136415213E-02  3.251338959836E-02
  3.034649450665E-02  2.830473904121E-02  2.638234619320E-02  2.457370418810E-02
  2.287336837410E-02  2.127606260992E-02  1.977668017166E-02  1.837028419948E-02
  1.705210770568E-02  1.581755316584E-02  1.466219171487E-02  1.358176196969E-02
  1.257216849993E-02  1.162947996793E-02  1.074992695898E-02  9.929899522332E-03
  9.165944443705E-03  8.454762269504E-03  7.793204103226E-03  7.178268194320E-03
  6.607096339915E-03  6.076970119812E-03  5.585306985157E-03  5.129656221189E-03
  4.707694804325E-03  4.317223173686E-03  3.956160936811E-03  3.622542528916E-03
  3.314512844504E-03  3.030322859432E-03  2.768325260777E-03  2.526970100932E-03
  2.304800491349E-03  2.100448350289E-03  1.912630217765E-03  1.740143149678E-03
  1.581860701929E-03  1.436729014003E-03  1.303763000338E-03  1.182042656503E-03
  1.070709486055E-03  9.689630527590E-04  8.760576617534E-04  7.912991721798E-04
  7.140419428202E-04  6.436859113444E-04  5.796738069269E-04  5.214884952152E-04
  4.686504539271E-04  4.207153767315E-04  3.772719025199E-04  3.379394667055E-04
  3.023662707889E-04  2.702273661106E-04  2.412228474574E-04  2.150761520070E-04
  1.915324589731E-04  1.703571852572E-04  1.513345723986E-04  1.342663601611E-04
  1.189705421735E-04  1.052801991592E-04  9.304240543205E-05  8.211720453218E-05
  7.237664996305E-05  6.370390740571E-05  5.599241471716E-05  4.914509624537E-05
  4.307362862753E-05  3.769775489523E-05  3.294464395684E-05  2.874829304942E-05
  2.504897067129E-05  2.179269764295E-05  1.893076414457E-05  1.641928069136E-05
  1.421876111719E-05  1.229373574155E-05  1.061239298807E-05  9.146247808078E-06
  7.869835339876E-06  6.760428306048E-06  5.797776716463E-06  4.963868506519E-06
  4.242709798030E-06  3.620123525460E-06  3.083565223425E-06  2.621954822913E-06
  2.225523354121E-06  1.885673503257E-06  1.594853019544E-06  1.346440016870E-06
  1.134639262334E-06  9.543885911700E-07  8.012746342485E-07  6.714570903949E-07
  5.616008210849E-07  4.688150895063E-07  3.905993094020E-07  3.247947113961E-07
  2.695413755225E-07  2.232401183076E-07  1.845187608915E-07  1.522023412260E-07
  1.252868682713E-07  1.029162492831E-07  8.436205268640E-08  6.900579865313E-08
  5.632349732883E-08  4.587218069781E-08  3.727819835722E-08  3.022707002494E-08
  2.445470847865E-08  1.973984587008E-08  1.589751404208E-08  1.277344566696E-08
  1.023927779635E-08  8.188452844591E-09  6.532724198669E-09  5.199184639697E-09
  4.127745654941E-09  3.269004595860E-09  2.582444574986E-09  2.034919069151E-09
  1.599379481976E-09  1.253809484737E-09  9.803348683902E-10  7.644819632302E-10
  5.945614752470E-10  4.611579044111E-10  3.567076005186E-10  2.751510236172E-10
  2.116469511936E-10  1.623382523047E-10  1.241604651472E-10  9.468580124039E-11
  7.199638528531E-11  5.458155071245E-11  4.125486998027E-11  3.108732632625E-11
  2.335364801062E-11  1.748934309243E-11  1.305640644288E-11  9.716033271651E-12
  7.206975572636E-12  5.328428825745E-12  3.926544000184E-12  2.883831257134E-12
  2.110862629714E-12  1.539796387923E-12  1.119340046976E-12  8.108456671772E-13
  5.852932749264E-13  4.209684736176E-13  3.016807585063E-13  2.154014926496E-13
  1.532264302415E-13  1.085883205377E-13  7.666150508800E-14  5.391336633166E-14
  3.776767794948E-14  2.635290114508E-14  1.831471838472E-14  1.267695068557E-14
  8.738782446874E-15  5.999115076323E-15  4.101114554681E-15  2.791727914625E-15
  1.892250063462E-15  1.277014169623E-15  8.580288183818E-16  5.739498507092E-16
  3.821981622371E-16  2.533507468181E-16  1.671671003718E-16  1.097868272202E-16
  7.176223095241E-17  4.668346090712E-17  3.022222096025E-17  1.946974910937E-17
  1.248070150708E-17  7.960417278823E-18  5.051540181542E-18  3.189151213695E-18
  2.002907870484E-18  1.251269547248E-18  0.000000000000E+00  0.000000000000E+00
  0.000000000000E+00  0.000000000000E+00  0.000000000000E+00  0.000000000000E+00
  0.000000000000E+00  0.000000000000E+00  0.000000000000E+00  0.000000000000E+00
  0.000000000000E+00  0.000000000000E+00  0.000000000000E+00  0.000000000000E+00
  0.000000000000E+00  0.000000000000E+00  0.000000000000E+00  0.000000000000E+00
  0.000000000000E+00
</data>
</radfunc>
</valence-charge>
<pseudocore-charge matching-radius="0.326864273269"
 number-of-continuous-derivatives="4">
<annotation model-charge-form="Teter function with specified parameters" />
<radfunc>
<data npts="290">
  2.513447542544E+02  2.512613332105E+02  2.510120845168E+02  2.505966683578E+02
  2.499880568077E+02  2.492131236500E+02  2.482281291009E+02  2.471038616360E+02
  2.458443688438E+02  2.443817684661E+02  2.427411036457E+02  2.409673197881E+02
  2.388367639651E+02  2.366269311946E+02  2.344349130847E+02  2.319291792873E+02
  2.290689839335E+02  2.263826049067E+02  2.233912170246E+02  2.200651750191E+02
  2.163732855305E+02  2.131346012202E+02  2.096240413266E+02  2.058244847585E+02
  2.017189329331E+02  1.972908208342E+02  1.925243964670E+02  1.887187856926E+02
  1.847092194242E+02  1.804909422967E+02  1.760600768324E+02  1.714138019857E+02
  1.665505477088E+02  1.614702046635E+02  1.561743474969E+02  1.506664692545E+02
  1.449522234785E+02  1.390396693517E+02  1.349929666403E+02  1.308667006660E+02
  1.266653435940E+02  1.223939916245E+02  1.180583882512E+02  1.136649437365E+02
  1.092207499791E+02  1.047335898817E+02  1.002119402788E+02  9.566496743626E+01
  9.110251411136E+01  8.653507714817E+01  8.197377460083E+01  7.743030141900E+01
  7.291687280671E+01  6.844615448271E+01  6.403117923078E+01  5.968524933942E+01
  5.542182479406E+01  5.125439740644E+01  4.719635144495E+01  4.326081176688E+01
  3.946048094505E+01  3.580746742046E+01  3.231310728823E+01  2.898778292229E+01
  2.584074224248E+01  2.287992300294E+01  2.011178699939E+01  1.880155348831E+01
  1.754116952118E+01  1.633096407478E+01  1.517114966972E+01  1.406181986276E+01
  1.300294728683E+01  1.199438227961E+01  1.103585213882E+01  1.012696103948E+01
  9.267190644171E+00  8.455901433360E+00  7.692334777175E+00  6.975615764646E+00
  6.304756799675E+00  5.678661966014E+00  5.096132155900E+00  4.555870948709E+00
  4.056491217459E+00  3.596522431926E+00  3.174418617909E+00  2.788566922810E+00
  2.437296728276E+00  2.118889241444E+00  1.831587487402E+00  1.573606617081E+00
  1.343144437019E+00  1.138392060617E+00  9.575445746783E-01  7.988116105007E-01
  6.604277056995E-01  5.406623414763E-01  4.378295403547E-01  3.502969116340E-01
  2.764940360543E-01  2.149200874928E-01  1.641505979509E-01  1.228432826226E-01
  8.974285438152E-02  6.368477145762E-02  4.359787821081E-02  2.850591649027E-02
  1.752790379541E-02  9.877393956253E-03  4.860655913045E-03  1.873825934187E-03
  3.991077723201E-04  1.133010632820E-07  3.164525730172E-04  1.057696475448E-03
  1.996846743378E-03  2.963456577781E-03  3.836550133874E-03  4.537490403207E-03
  5.022942331671E-03  5.278071334771E-03  5.310106768246E-03  5.142385608079E-03
  4.808973958600E-03  4.349943555467E-03  3.807357811761E-03  3.221997937977E-03
  2.630835111240E-03  2.065230497506E-03  1.549822087811E-03  1.102036720251E-03
  7.321481815610E-04  4.437886599877E-04  2.348116402277E-04  9.839997736658E-05
  2.431351418794E-05  1.761155026057E-07  1.271202325248E-05  4.885537190693E-05
  9.667370008728E-05  1.460653177778E-04  1.892102736613E-04  2.207741875584E-04
  2.378821606763E-04  2.398952460301E-04  2.280336323919E-04  2.048981051547E-04
  1.739441504581E-04  1.389612708542E-04  1.036040487575E-04  7.101193449984E-05
  4.354264254014E-05  2.263061133855E-05  8.768519336725E-06  1.597631885891E-06
  8.291907501702E-08  2.742310782111E-06  7.896668919946E-06  1.390817107141E-05
  1.937949792345E-05  2.329378372775E-05  2.508468941720E-05  2.463595830348E-05
  2.221913259064E-05  1.838557767410E-05  1.383368067825E-05  9.273551253774E-06
  5.309711799031E-06  2.357549946180E-06  6.025607104389E-07  3.760122136446E-09
  0.000000000000E+00  0.000000000000E+00  0.000000000000E+00  0.000000000000E+00
  0.000000000000E+00  0.000000000000E+00  0.000000000000E+00  0.000000000000E+00
  0.000000000000E+00  0.000000000000E+00  0.000000000000E+00  0.000000000000E+00
  0.000000000000E+00  0.000000000000E+00  0.000000000000E+00  0.000000000000E+00
  0.000000000000E+00  0.000000000000E+00  0.000000000000E+00  0.000000000000E+00
  0.000000000000E+00  0.000000000000E+00  0.000000000000E+00  0.000000000000E+00
  0.000000000000E+00  0.000000000000E+00  0.000000000000E+00  0.000000000000E+00
  0.000000000000E+00  0.000000000000E+00  0.000000000000E+00  0.000000000000E+00
  0.000000000000E+00  0.000000000000E+00  0.000000000000E+00  0.000000000000E+00
  0.000000000000E+00  0.000000000000E+00  0.000000000000E+00  0.000000000000E+00
  0.000000000000E+00  0.000000000000E+00  0.000000000000E+00  0.000000000000E+00
  0.000000000000E+00  0.000000000000E+00  0.000000000000E+00  0.000000000000E+00
  0.000000000000E+00  0.000000000000E+00  0.000000000000E+00  0.000000000000E+00
  0.000000000000E+00  0.000000000000E+00  0.000000000000E+00  0.000000000000E+00
  0.000000000000E+00  0.000000000000E+00  0.000000000000E+00  0.000000000000E+00
  0.000000000000E+00  0.000000000000E+00  0.000000000000E+00  0.000000000000E+00
  0.000000000000E+00  0.000000000000E+00  0.000000000000E+00  0.000000000000E+00
  0.000000000000E+00  0.000000000000E+00  0.000000000000E+00  0.000000000000E+00
  0.000000000000E+00  0.000000000000E+00  0.000000000000E+00  0.000000000000E+00
  0.000000000000E+00  0.000000000000E+00  0.000000000000E+00  0.000000000000E+00
  0.000000000000E+00  0.000000000000E+00  0.000000000000E+00  0.000000000000E+00
  0.000000000000E+00  0.000000000000E+00  0.000000000000E+00  0.000000000000E+00
  0.000000000000E+00  0.000000000000E+00  0.000000000000E+00  0.000000000000E+00
  0.000000000000E+00  0.000000000000E+00  0.000000000000E+00  0.000000000000E+00
  0.000000000000E+00  0.000000000000E+00  0.000000000000E+00  0.000000000000E+00
  0.000000000000E+00  0.000000000000E+00  0.000000000000E+00  0.000000000000E+00
  0.000000000000E+00  0.000000000000E+00  0.000000000000E+00  0.000000000000E+00
  0.000000000000E+00  0.000000000000E+00  0.000000000000E+00  0.000000000000E+00
  0.000000000000E+00  0.000000000000E+00  0.000000000000E+00  0.000000000000E+00
  0.000000000000E+00  0.000000000000E+00
</data>
</radfunc>
</pseudocore-charge>
<semilocal-potentials set="scalar_relativistic">
<slps n="3" l="s" rc="1.21401437608" eref="-6.17815564899">
<radfunc>
<data npts="290">
 -3.936290521132E+01 -3.936278098342E+01 -3.936240954231E+01 -3.936178968042E+01
 -3.936087973743E+01 -3.935971794988E+01 -3.935823595247E+01 -3.935653692905E+01
 -3.935462370571E+01 -3.935238832990E+01 -3.934986255383E+01 -3.934710901291E+01
 -3.934376851830E+01 -3.934026327488E+01 -3.933674312913E+01 -3.933266330337E+01
 -3.932792878413E+01 -3.932340173123E+01 -3.931826307458E+01 -3.931242058621E+01
 -3.930576485495E+01 -3.929976773964E+01 -3.929308812249E+01 -3.928563412861E+01
 -3.927729826546E+01 -3.926795423098E+01 -3.925745302998E+01 -3.924871280507E+01
 -3.923913677655E+01 -3.922862654733E+01 -3.921706983105E+01 -3.920433833999E+01
 -3.919028536346E+01 -3.917474299755E+01 -3.915751898489E+01 -3.913839312066E+01
 -3.911711318115E+01 -3.909339033335E+01 -3.907605656466E+01 -3.905738168671E+01
 -3.903724609621E+01 -3.901551914204E+01 -3.899205821592E+01 -3.896670780558E+01
 -3.893929852125E+01 -3.890964611121E+01 -3.887755048809E+01 -3.884279479553E+01
 -3.880514455342E+01 -3.876434693029E+01 -3.872013020222E+01 -3.867220346722E+01
 -3.862025669211E+01 -3.856396116984E+01 -3.850297045796E+01 -3.843692184573E+01
 -3.836543835585E+01 -3.828813122258E+01 -3.820460270266E+01 -3.811444897832E+01
 -3.801726282082E+01 -3.791263562729E+01 -3.780015845773E+01 -3.767942180941E+01
 -3.755001407849E+01 -3.741151894185E+01 -3.726351217551E+01 -3.718580643806E+01
 -3.710555861639E+01 -3.702271224929E+01 -3.693720999743E+01 -3.684899366034E+01
 -3.675800422122E+01 -3.666418191838E+01 -3.656746634150E+01 -3.646779655003E+01
 -3.636511121131E+01 -3.625934875604E+01 -3.615044754929E+01 -3.603834607621E+01
 -3.592298314197E+01 -3.580429808679E+01 -3.568223101688E+01 -3.555672305248E+01
 -3.542771659402E+01 -3.529515560643E+01 -3.515898592069E+01 -3.501915554995E+01
 -3.487561501608E+01 -3.472831768031E+01 -3.457722007014E+01 -3.442228219332E+01
 -3.426346782853E+01 -3.410074478264E+01 -3.393408510475E+01 -3.376346524869E+01
 -3.358886617790E+01 -3.341027340949E+01 -3.322767699746E+01 -3.304107145831E+01
 -3.285045564590E+01 -3.265583258474E+01 -3.245720927338E+01 -3.225459647078E+01
 -3.204800847874E+01 -3.183746293324E+01 -3.162298061590E+01 -3.140458529509E+01
 -3.118230360361E+01 -3.095616495739E+01 -3.072620151723E+01 -3.049244819306E+01
 -3.025494268855E+01 -3.001372558231E+01 -2.976884044100E+01 -2.952033395938E+01
 -2.926825612235E+01 -2.901266038461E+01 -2.875360386459E+01 -2.849114755040E+01
 -2.822535651739E+01 -2.795630015862E+01 -2.768405243150E+01 -2.740869212659E+01
 -2.713030316711E+01 -2.684897495063E+01 -2.656480274842E+01 -2.627788818142E+01
 -2.598833979689E+01 -2.569627377440E+01 -2.540181479570E+01 -2.510509711844E+01
 -2.480626589974E+01 -2.450547882069E+01 -2.420290806757E+01 -2.389874272869E+01
 -2.359319166685E+01 -2.328648692701E+01 -2.297888773480E+01 -2.267068513675E+01
 -2.236220732556E+01 -2.205382568653E+01 -2.174596159423E+01 -2.143909398455E+01
 -2.113376772694E+01 -2.083060282790E+01 -2.053030450920E+01 -2.023367422458E+01
 -1.994162170560E+01 -1.965517815907E+01 -1.937551077189E+01 -1.910393870843E+01