<?xml version="1.0" encoding="UTF-8" ?>
<psml version="1.1" energy_unit="hartree" length_unit="bohr"
 uuid="800e0af0-1d60-11e8-5de6-4110cbbf9458"
 xmlns="http://esl.cecam.org/PSML/ns/1.1">
<provenance creator="ONCVPSP-3.3.0+psml-3.3.0-73 (scalar-relativistic)"
 date="2018-03-01">
<annotation action="semilocal-pseudopotential-generation"
 action-cont="projectors-generation" />
<input-file name="oncvpsp-input">
<![CDATA[# atsym z nc nv iexc psfile
Xe 54 9 2 -116133 upf
# n l f
1 0 2.0
2 0 2.0
2 1 6.0
3 0 2.0
3 1 6.0
3 2 10.0
4 0 2.0
4 1 6.0
4 2 10.0
5 0 2.0
5 1 6.0
# lmax
2
# l rc ep ncon nbas qcut
0 2.0 0.0 4 7 4.0
1 1.8 0.0 4 8 6.0
2 2.2 0.1 4 7 5.5
# lloc lpopt rc5 dvloc0
4 5 1.8 0.0
# l nproj debl
0 2 4.0
1 2 3.0
2 2 4.0
# icmod fcfact
3 8 1.23
# epsh1 epsh2 depsh
-12.0 12.0 0.02
# rlmax drl
6.0 0.01
 0
]]>
</input-file>
</provenance>
<pseudo-atom-spec atomic-label="Xe" atomic-number="54" z-pseudo="8"
 flavor="Hamann&apos;s oncvpsp" relativity="scalar" spin-dft="no"
 core-corrections="yes">
<annotation pseudo-energy="-15.7451005081" />
<exchange-correlation>
<annotation oncvpsp-xc-code="-116133" oncvpsp-xc-type="libxc-interface" />
<libxc-info number-of-functionals="2">
<functional name="Perdew, Burke &amp; Ernzerhof SOL (GGA)" type="exchange"
 id="116" />
<functional name="Perdew, Burke &amp; Ernzerhof SOL (GGA)" type="correlation"
 id="133" />
</libxc-info>
</exchange-correlation>
<valence-configuration total-valence-charge="8">
<shell n="5" l="s" occupation="2" />
<shell n="5" l="p" occupation="6" />
</valence-configuration>
</pseudo-atom-spec>
<grid npts="457">
<annotation type="sampled from oncvpsp log grid"
 recipe="r(i:1..N) = r1*exp(a*(i-1)) + r=0; resampled"
 recipe-cont="r1: scale; a: step" scale="0.925925925926E-05"
 step="0.119285708653E-01" delta="0.500000000000E-02" rmax="44.0815505142" />
<grid-data>
  0.000000000000E+00  5.033694410375E-03  1.005440955457E-02  1.508321761245E-02
  2.032388877205E-02  2.549391579491E-02  3.085494290253E-02  3.603059297763E-02
  4.108251733498E-02  4.628733449663E-02  5.153316126297E-02  5.669318873521E-02
  6.236989096331E-02  6.780138607829E-02  7.283190127614E-02  7.823565490787E-02
  8.404033935153E-02  8.920523875257E-02  9.468755935905E-02  1.005068090479E-01
  1.066836945990E-01  1.118974262617E-01  1.173659578539E-01  1.231017416857E-01
  1.291178386233E-01  1.354279478297E-01  1.420464379586E-01  1.472217192426E-01
  1.525855553172E-01  1.581448159363E-01  1.639066211448E-01  1.698783503969E-01
  1.760676520084E-01  1.824824529513E-01  1.891309690069E-01  1.960217152880E-01
  2.031635171449E-01  2.105655214681E-01  2.156494154184E-01  2.208560549043E-01
  2.261884034939E-01  2.316494963079E-01  2.372424417467E-01  2.429704232603E-01
  2.488367011595E-01  2.548446144723E-01  2.609975828441E-01  2.672991084843E-01
  2.737527781595E-01  2.803622652354E-01  2.871313317672E-01  2.940638306414E-01
  3.011637077684E-01  3.084350043288E-01  3.158818590733E-01  3.235085106788E-01
  3.313193001606E-01  3.393186733437E-01  3.475111833929E-01  3.559014934047E-01
  3.644943790615E-01  3.732947313495E-01  3.823075593432E-01  3.915379930560E-01
  4.009912863604E-01  4.106728199783E-01  4.205881045438E-01  4.256351617983E-01
  4.307427837399E-01  4.359116971448E-01  4.411426375105E-01  4.464363491607E-01
  4.517935853506E-01  4.572151083748E-01  4.627016896753E-01  4.682541099514E-01
  4.738731592708E-01  4.795596371821E-01  4.853143528282E-01  4.911381250622E-01
  4.970317825629E-01  5.029961639537E-01  5.090321179211E-01  5.151405033362E-01
  5.213221893762E-01  5.275780556487E-01  5.339089923165E-01  5.403159002243E-01
  5.467996910270E-01  5.533612873193E-01  5.600016227672E-01  5.667216422404E-01
  5.735223019473E-01  5.804045695706E-01  5.873694244055E-01  5.944178574983E-01
  6.015508717883E-01  6.087694822498E-01  6.160747160368E-01  6.234676126292E-01
  6.309492239808E-01  6.385206146685E-01  6.461828620446E-01  6.539370563891E-01
  6.617843010658E-01  6.697257126786E-01  6.777624212307E-01  6.858955702855E-01
  6.941263171289E-01  7.024558329344E-01  7.108853029296E-01  7.194159265648E-01
  7.280489176836E-01  7.367855046958E-01  7.456269307521E-01  7.545744539212E-01
  7.636293473682E-01  7.727928995366E-01  7.820664143311E-01  7.914512113030E-01
  8.009486258387E-01  8.105600093487E-01  8.202867294609E-01  8.301301702145E-01
  8.400917322570E-01  8.501728330441E-01  8.603749070406E-01  8.706994059251E-01
  8.811477987962E-01  8.917215723818E-01  9.024222312504E-01  9.132512980254E-01
  9.242103136017E-01  9.353008373649E-01  9.465244474133E-01  9.578827407822E-01
  9.693773336716E-01  9.810098616757E-01  9.927819800158E-01  1.004695363776E+00
  1.016751708141E+00  1.028952728639E+00  1.041300161383E+00  1.053795763319E+00
  1.066441312479E+00  1.079238608229E+00  1.092189471528E+00  1.105295745186E+00
  1.118559294128E+00  1.131982005658E+00  1.145565789726E+00  1.159312579202E+00
  1.173224330153E+00  1.187303022115E+00  1.201550658380E+00  1.215969266280E+00
  1.230560897476E+00  1.245327628246E+00  1.260271559784E+00  1.275394818502E+00
  1.290699556324E+00  1.306187951000E+00  1.321862206412E+00  1.337724552889E+00
  1.353777247523E+00  1.370022574494E+00  1.386462845388E+00  1.403100399532E+00
  1.419937604327E+00  1.436976855579E+00  1.454220577846E+00  1.471671224780E+00
  1.489331279477E+00  1.507203254831E+00  1.525289693889E+00  1.543593170215E+00
  1.562116288258E+00  1.580861683717E+00  1.599832023922E+00  1.619030008209E+00
  1.638458368307E+00  1.658119868727E+00  1.678017307152E+00  1.698153514837E+00
  1.718531357016E+00  1.739153733300E+00  1.760023578099E+00  1.781143861036E+00
  1.802517587369E+00  1.824147798417E+00  1.846037571998E+00  1.868190022862E+00
  1.890608303137E+00  1.913295602774E+00  1.936255150008E+00  1.959490211808E+00
  1.983004094349E+00  2.006800143482E+00  2.030881745203E+00  2.055252326146E+00
  2.079915354060E+00  2.104874338308E+00  2.130132830368E+00  2.155694424332E+00
  2.181562757424E+00  2.207741510513E+00  2.234234408640E+00  2.261045221543E+00
  2.288177764202E+00  2.315635897372E+00  2.343423528141E+00  2.371544610478E+00
  2.400003145804E+00  2.428803183554E+00  2.457948821756E+00  2.487444207618E+00
  2.517293538109E+00  2.547501060566E+00  2.578071073293E+00  2.609007926173E+00
  2.640316021287E+00  2.671999813542E+00  2.704063811305E+00  2.736512577040E+00
  2.769350727965E+00  2.802582936700E+00  2.836213931941E+00  2.870248499124E+00
  2.904691481113E+00  2.939547778887E+00  2.974822352233E+00  3.010520220460E+00
  3.046646463106E+00  3.083206220663E+00  3.120204695311E+00  3.157647151655E+00
  3.195538917475E+00  3.233885384484E+00  3.272692009098E+00  3.311964313207E+00
  3.351707884966E+00  3.391928379585E+00  3.432631520140E+00  3.473823098382E+00
  3.515508975563E+00  3.557695083269E+00  3.600387424269E+00  3.643592073360E+00
  3.687315178240E+00  3.731562960379E+00  3.776341715904E+00  3.821657816494E+00
  3.867517710292E+00  3.913927922816E+00  3.960895057890E+00  4.008425798584E+00
  4.056526908167E+00  4.105205231065E+00  4.154467693838E+00  4.204321306164E+00
  4.254773161838E+00  4.305830439780E+00  4.357500405058E+00  4.409790409918E+00
  4.462707894837E+00  4.516260389575E+00  4.570455514250E+00  4.625300980421E+00
  4.680804592186E+00  4.736974247293E+00  4.793817938260E+00  4.851343753519E+00
  4.909559878561E+00  4.968474597104E+00  5.028096292269E+00  5.088433447777E+00
  5.149494649150E+00  5.211288584940E+00  5.273824047959E+00  5.337109936535E+00
  5.401155255773E+00  5.465969118842E+00  5.531560748268E+00  5.597939477248E+00
  5.665114750975E+00  5.733096127986E+00  5.801893281522E+00  5.871516000900E+00
  5.941974192911E+00  6.013277883226E+00  6.085437217825E+00  6.158462464439E+00
  6.232364014012E+00  6.307152382180E+00  6.382838210766E+00  6.459432269296E+00
  6.536945456527E+00  6.615388802005E+00  6.694773467629E+00  6.775110749241E+00
  6.856412078232E+00  6.938689023171E+00  7.021953291449E+00  7.106216730946E+00
  7.191491331717E+00  7.277789227698E+00  7.365122698430E+00  7.453504170812E+00
  7.542946220861E+00  7.633461575512E+00  7.725063114418E+00  7.817763871791E+00
  7.911577038252E+00  8.006515962711E+00  8.102594154264E+00  8.199825284115E+00
  8.298223187524E+00  8.397801865775E+00  8.498575488164E+00  8.600558394022E+00
  8.703765094750E+00  8.808210275887E+00  8.913908799198E+00  9.020875704788E+00
  9.129126213246E+00  9.238675727805E+00  9.349539836538E+00  9.461734314577E+00
  9.575275126352E+00  9.690178427868E+00  9.806460569002E+00  9.924138095830E+00
  1.004322775298E+01  1.016374648602E+01  1.028571144385E+01  1.040913998117E+01
  1.053404966095E+01  1.066045825688E+01  1.078838375596E+01  1.091784436103E+01
  1.104885849337E+01  1.118144479529E+01  1.131562213283E+01  1.145140959842E+01
  1.158882651361E+01  1.172789243177E+01  1.186862714095E+01  1.201105066664E+01
  1.215518327464E+01  1.230104547394E+01  1.244865801962E+01  1.259804191586E+01
  1.274921841885E+01  1.290220903988E+01  1.305703554835E+01  1.321371997493E+01
  1.337228461463E+01  1.353275203001E+01  1.369514505437E+01  1.385948679502E+01
  1.402580063656E+01  1.419411024420E+01  1.436443956713E+01  1.453681284194E+01
  1.471125459604E+01  1.488778965119E+01  1.506644312701E+01  1.524724044453E+01
  1.543020732987E+01  1.561536981782E+01  1.580275425564E+01  1.599238730671E+01
  1.618429595439E+01  1.637850750584E+01  1.657504959591E+01  1.677395019106E+01
  1.697523759335E+01  1.717894044447E+01  1.738508772981E+01  1.759370878256E+01
  1.780483328795E+01  1.801849128741E+01  1.823471318286E+01  1.845352974105E+01
  1.867497209795E+01  1.889907176312E+01  1.912586062428E+01  1.935537095177E+01
  1.958763540319E+01  1.982268702803E+01  2.006055927237E+01  2.030128598363E+01
  2.054490141544E+01  2.079144023242E+01  2.104093751521E+01  2.129342876539E+01
  2.154894991058E+01  2.180753730951E+01  2.206922775722E+01  2.233405849031E+01
  2.260206719219E+01  2.287329199850E+01  2.314777150248E+01  2.342554476051E+01
  2.370665129764E+01  2.399113111321E+01  2.427902468657E+01  2.457037298280E+01
  2.486521745860E+01  2.516360006810E+01  2.546556326892E+01  2.577115002815E+01
  2.608040382848E+01  2.639336867442E+01  2.671008909852E+01  2.703061016770E+01
  2.735497748971E+01  2.768323721959E+01  2.801543606622E+01  2.835162129902E+01
  2.869184075461E+01  2.903614284366E+01  2.938457655779E+01  2.973719147648E+01
  3.009403777420E+01  3.045516622749E+01  3.082062822222E+01  3.119047576088E+01
  3.156476147001E+01  3.194353860765E+01  3.232686107095E+01  3.271478340380E+01
  3.310736080464E+01  3.350464913430E+01  3.390670492391E+01  3.431358538300E+01
  3.472534840759E+01  3.514205258849E+01  3.556375721955E+01  3.599052230618E+01
  3.642240857386E+01  3.685947747674E+01  3.730179120646E+01  3.774941270094E+01
  3.820240565335E+01  3.866083452119E+01  3.912476453545E+01  3.959426170987E+01
  4.006939285039E+01  4.055022556459E+01  4.103682827137E+01  4.152927021063E+01
  4.202762145315E+01  4.253195291059E+01  4.304233634552E+01  4.355884438166E+01
  4.408155051424E+01
</grid-data>
</grid>
<valence-charge total-charge="8" is-unscreening-charge="yes"
 rescaled-to-z-pseudo="no">
<radfunc>
<data npts="457">
  1.094920767953E-02  1.095868933709E-02  1.098705213778E-02  1.103443436159E-02
  1.110410320030E-02  1.119324492760E-02  1.130725655377E-02  1.143836312449E-02
  1.158648490492E-02  1.176016414183E-02  1.195715305451E-02  1.217273854568E-02
  1.243533618678E-02  1.271199279123E-02  1.299081991900E-02  1.331503685760E-02
  1.369243975692E-02  1.405419934340E-02  1.446557414135E-02  1.493384943602E-02
  1.546749434026E-02  1.594805532196E-02  1.648254255073E-02  1.707754074853E-02
  1.774053142174E-02  1.848002880679E-02  1.930573793040E-02  1.998820379618E-02
  2.073061306441E-02  2.153877473161E-02  2.241912190140E-02  2.337878406366E-02
  2.442566789779E-02  2.556854753885E-02  2.681716532496E-02  2.818234412510E-02
  2.967611242555E-02  3.131184342958E-02  3.248847656772E-02  3.373959132804E-02
  3.507035328741E-02  3.648630829848E-02  3.799341042794E-02  3.959805174451E-02
  4.130709404128E-02  4.312790257490E-02  4.506838190107E-02  4.713701388174E-02
  4.934289793359E-02  5.169579358062E-02  5.420616536502E-02  5.688523016017E-02
  5.974500691781E-02  6.279836886708E-02  6.605909816764E-02  6.954194300087E-02
  7.326267706279E-02  7.723816140046E-02  8.148640850851E-02  8.602664857540E-02
  9.087939773954E-02  9.606652818209E-02  1.016113398478E-01  1.075386335443E-01
  1.138747851249E-01  1.206478204078E-01  1.278874904221E-01  1.316921008791E-01
  1.356253464990E-01  1.396914646976E-01  1.438948146334E-01  1.482398794427E-01
  1.527312684314E-01  1.573737192177E-01  1.621720998152E-01  1.671314106465E-01
  1.722567864764E-01  1.775534982516E-01  1.830269548339E-01  1.886827046091E-01
  1.945264369567E-01  2.005639835583E-01  2.068013195239E-01  2.132445643107E-01
  2.198999824067E-01  2.267739837475E-01  2.338731238317E-01  2.412041034957E-01
  2.487737683025E-01  2.565891074977E-01  2.646572524760E-01  2.729854746977E-01
  2.815811829873E-01  2.904519201389E-01  2.996053587443E-01  3.090492961520E-01
  3.187916484546E-01  3.288404433941E-01  3.392038120601E-01  3.498899792494E-01
  3.609072523388E-01  3.722640085141E-01  3.839686801823E-01  3.960297383843E-01
  4.084556740077E-01  4.212549765895E-01  4.344361104835E-01  4.480074881553E-01
  4.619774403537E-01  4.763541829003E-01  4.911457798248E-01  5.063601025708E-01
  5.220047849879E-01  5.380871738255E-01  5.546142744458E-01  5.715926914779E-01
  5.890285641452E-01  6.069274960161E-01  6.252944789496E-01  6.441338110372E-01
  6.634490083798E-01  6.832427105868E-01  7.035165799384E-01  7.242711942193E-01
  7.455059333090E-01  7.672188597012E-01  7.894065932249E-01  8.120641803502E-01
  8.351849585839E-01  8.587604165937E-01  8.827800508413E-01  9.072312196578E-01
  9.320989958535E-01  9.573660191167E-01  9.830123496262E-01  1.009015324465E+00
  1.035349418587E+00  1.061986112246E+00  1.088893766935E+00  1.116037512012E+00
  1.143379144303E+00  1.170877043025E+00  1.198486102472E+00  1.226157684850E+00
  1.253839595686E+00  1.281476084127E+00  1.309007870337E+00  1.336372202032E+00
  1.363502942005E+00  1.390330688197E+00  1.416782927584E+00  1.442784224829E+00
  1.468256446228E+00  1.493119019130E+00  1.517289226548E+00  1.540682536323E+00
  1.563212963728E+00  1.584793466086E+00  1.605336367587E+00  1.624753812211E+00
  1.642958242436E+00  1.659862901245E+00  1.675382354860E+00  1.689433033640E+00
  1.701933788631E+00  1.712806461418E+00  1.721976465114E+00  1.729373374551E+00
  1.734931523960E+00  1.738590610631E+00  1.740296303170E+00  1.740000852962E+00
  1.737663707287E+00  1.733252122150E+00  1.726741772219E+00  1.718117354309E+00
  1.707373179549E+00  1.694513747720E+00  1.679554295284E+00  1.662521306385E+00
  1.643452973641E+00  1.622399593073E+00  1.599423875068E+00  1.574601151257E+00
  1.548019455620E+00  1.519779457529E+00  1.489994224873E+00  1.458788797304E+00
  1.426299553175E+00  1.392672575197E+00  1.358058539410E+00  1.322605666387E+00
  1.286457531964E+00  1.249753074546E+00  1.212625167599E+00  1.175199918525E+00
  1.137596038153E+00  1.099924391487E+00  1.062287910549E+00  1.024782419064E+00
  9.874979276059E-01  9.505188007022E-01  9.139234704130E-01  8.777845500493E-01
  8.421688457210E-01  8.071374185850E-01  7.727456723459E-01  7.390434655057E-01
  7.060752459306E-01  6.738802052940E-01  6.424924510272E-01  6.119411932694E-01
  5.822509448658E-01  5.534417318847E-01  5.255293127096E-01  4.985254036681E-01
  4.724379093001E-01  4.472711554862E-01  4.230261237763E-01  3.997006853859E-01
  3.772898334525E-01  3.557859122748E-01  3.351788423827E-01  3.154563404133E-01
  2.966041328908E-01  2.786061631274E-01  2.614447905985E-01  2.451009821311E-01
  2.295544946753E-01  2.147840490751E-01  2.007674947028E-01  1.874819647614E-01
  1.749040221654E-01  1.630097959890E-01  1.517751085341E-01  1.411755931385E-01
  1.311868028986E-01  1.217843105305E-01  1.129437996404E-01  1.046411477090E-01
  9.685250112913E-02  8.955434265851E-02  8.272355166826E-02  7.633745757901E-02
  7.037388688138E-02  6.481120413612E-02  5.962834734196E-02  5.480485804672E-02
  5.032090656064E-02  4.615731261076E-02  4.229556175313E-02  3.871781783677E-02
  3.540693179069E-02  3.234644698429E-02  2.952060139280E-02  2.691432678385E-02
  2.451324512905E-02  2.230366243593E-02  2.027256019009E-02  1.840758459483E-02
  1.669703379544E-02  1.512984327596E-02  1.369556961853E-02  1.238437281696E-02
  1.118699733728E-02  1.009475211792E-02  9.099489700685E-03  8.193584679820E-03
  7.369911651329E-03  6.621822837088E-03  5.943125549326E-03  5.328059650248E-03
  4.771275149586E-03  4.267810069871E-03  3.813068695485E-03  3.402800307501E-03
  3.033078492120E-03  2.700281096537E-03  2.401070892449E-03  2.132376994456E-03
  1.891377068392E-03  1.675480353336E-03  1.482311510739E-03  1.309695304895E-03
  1.155642110884E-03  1.018334239075E-03  8.961130594213E-04  7.874669039134E-04
  6.910197217146E-04  6.055204586075E-04  5.298331302866E-04  4.629275577118E-04
  4.038707320446E-04  3.518187765405E-04  3.060094730698E-04  2.657553215786E-04
  2.304371017098E-04  1.994979069010E-04  1.724376224872E-04  1.488078206262E-04
  1.282070461688E-04  1.102764688998E-04  9.469587884152E-05  8.118000253370E-05
  6.947511936426E-05  5.935595812760E-05  5.062285502599E-05  4.309915531033E-05
  3.662884168241E-05  3.107437345810E-05  2.631472132475E-05  2.224358332252E-05
  1.876776844311E-05  1.580573497467E-05  1.328627143283E-05  1.114730860623E-05
  9.334851913439E-06  7.802023917621E-06  6.508207476016E-06  5.418280613427E-06
  4.501934802204E-06  3.733068904740E-06  3.089251587712E-06  2.551245549237E-06
  2.102587409895E-06  1.729217605502E-06  1.419155082864E-06  1.162212039029E-06
  9.497443594284E-07  7.744338006747E-07  6.300983296130E-07  5.115273717910E-07
  4.143390402184E-07  3.348567096436E-07  2.700025733126E-07  2.172060690863E-07
  1.743252907990E-07  1.395797098244E-07  1.114927220411E-07  8.884270783165E-08
  7.062144854074E-08  5.599888307007E-08  4.429331412448E-08  3.494628614317E-08
  2.750145722499E-08  2.158687642138E-08  1.690015661753E-08  1.319610279427E-08
  1.027641665032E-08  7.981152203160E-09  6.181643854594E-09  4.774669227807E-09
  3.677644520328E-09  2.824680784067E-09  2.163355995232E-09  1.652080519892E-09
  1.257953071956E-09  9.550209104867E-10  7.228722005835E-10  5.455004945907E-10
  4.103914693902E-10  3.077906383181E-10  2.301179693918E-10  1.715013835793E-10
  1.274061511298E-10  9.434140122633E-11  6.962844091268E-11  5.121845596186E-11
  3.754953579707E-11  2.743490949976E-11  1.997587088636E-11  1.449416749087E-11
  1.047968170483E-11  7.550084963321E-12  5.419833526450E-12  3.876427009062E-12
  2.762293266348E-12  1.961016202303E-12  1.386903588806E-12  9.771140964752E-13
  6.857379395556E-13  4.793632056312E-13  3.337676993595E-13  2.314601467200E-13
  1.598598545432E-13  1.099543901847E-13  7.531372789343E-14  5.136914045475E-14
  3.488790906590E-14  2.359226884484E-14  1.588414932903E-14  1.064718463871E-14
  7.104916654014E-15  4.719685851322E-15  3.120853186702E-15  2.054072072557E-15
  1.345599351957E-15  8.773017138531E-16  5.692333941506E-16  3.675485481403E-16
  2.361546288247E-16  1.509766465385E-16  9.603476638739E-17  6.077516145977E-17
  3.826272392940E-17  2.396352212663E-17  1.492873353442E-17  9.250496462100E-18
  5.700969792532E-18  3.494182380160E-18  2.129740380782E-18  1.290811322864E-18
  7.779007242135E-19  4.661017139560E-19  2.776524717307E-19  1.644201845983E-19
  9.678517982294E-20  5.662764697876E-20  0.000000000000E+00  0.000000000000E+00
  0.000000000000E+00  0.000000000000E+00  0.000000000000E+00  0.000000000000E+00
  0.000000000000E+00  0.000000000000E+00  0.000000000000E+00  0.000000000000E+00
  0.000000000000E+00  0.000000000000E+00  0.000000000000E+00  0.000000000000E+00
  0.000000000000E+00  0.000000000000E+00  0.000000000000E+00  0.000000000000E+00
  0.000000000000E+00  0.000000000000E+00  0.000000000000E+00  0.000000000000E+00
  0.000000000000E+00  0.000000000000E+00  0.000000000000E+00  0.000000000000E+00
  0.000000000000E+00  0.000000000000E+00  0.000000000000E+00  0.000000000000E+00
  0.000000000000E+00  0.000000000000E+00  0.000000000000E+00  0.000000000000E+00
  0.000000000000E+00  0.000000000000E+00  0.000000000000E+00  0.000000000000E+00
  0.000000000000E+00
</data>
</radfunc>
</valence-charge>
<pseudocore-charge matching-radius="1.41993760433"
 number-of-continuous-derivatives="4">
<annotation model-charge-form="Teter function with specified parameters" />
<radfunc>
<data npts="290">
  1.387999910210E+01  1.387963483191E+01  1.387854582936E+01  1.387672874366E+01
  1.387406189909E+01  1.387065814269E+01  1.386631852983E+01  1.386134713301E+01
  1.385575456343E+01  1.384922903682E+01  1.384186885732E+01  1.383386307296E+01
  1.382417957956E+01  1.381405674697E+01  1.380393465951E+01  1.379226346811E+01
  1.377880762632E+01  1.376603691826E+01  1.375166154570E+01  1.373548177317E+01
  1.371727351349E+01  1.370107853305E+01  1.368328262881E+01  1.366372982067E+01
  1.364224940934E+01  1.361865468848E+01  1.359274156591E+01  1.357165190763E+01
  1.354903163888E+01  1.352477239144E+01  1.349875854253E+01  1.347086679417E+01
  1.344096573878E+01  1.340891541230E+01  1.337456683685E+01  1.333776155528E+01
  1.329833116079E+01  1.325609682518E+01  1.322628963057E+01  1.319509315783E+01
  1.316244610928E+01  1.312828482887E+01  1.309254324721E+01  1.305515282944E+01
  1.301604252654E+01  1.297513873076E+01  1.293236523588E+01  1.288764320324E+01
  1.284089113426E+01  1.279202485066E+01  1.274095748335E+01  1.268759947113E+01
  1.263185857069E+01  1.257363987909E+01  1.251284587046E+01  1.244937644841E+01
  1.238312901606E+01  1.231399856553E+01  1.224187778898E+01  1.216665721347E+01
  1.208822536179E+01  1.200646894210E+01  1.192127306861E+01  1.183252151649E+01
  1.174009701358E+01  1.164388157227E+01  1.154375686451E+01  1.149219156781E+01
  1.143960464326E+01  1.138598139997E+01  1.133130721390E+01  1.127556754560E+01
  1.121874795877E+01  1.116083413986E+01  1.110181191853E+01  1.104166728921E+01
  1.098038643359E+01  1.091795574419E+01  1.085436184904E+01  1.078959163736E+01
  1.072363228645E+01  1.065647128961E+01  1.058809648536E+01  1.051849608770E+01
  1.044765871761E+01  1.037557343581E+01  1.030222977666E+01  1.022761778331E+01
  1.015172804415E+01  1.007455173045E+01  9.996080635205E+00  9.916307213324E+00
  9.835224622984E+00  9.752826768234E+00  9.669108342812E+00  9.584064875153E+00
  9.497692774569E+00  9.409989378569E+00  9.320953001274E+00  9.230582982901E+00
  9.138879740251E+00  9.045844818147E+00  8.951480941765E+00  8.855792069771E+00
  8.758783448192E+00  8.660461664923E+00  8.560834704773E+00  8.459912004934E+00
  8.357704510746E+00  8.254224731641E+00  8.149486797094E+00  8.043506512446E+00
  7.936301414412E+00  7.827890826100E+00  7.718295911338E+00  7.607539728094E+00
  7.495647280771E+00  7.382645571135E+00  7.268563647605E+00  7.153432652664E+00
  7.037285868073E+00  6.920158757614E+00  6.802089007029E+00  6.683116560831E+00
  6.563283655643E+00  6.442634849703E+00  6.321217048163E+00  6.199079523794E+00
  6.076273932705E+00  5.952854324658E+00  5.828877147566E+00  5.704401245745E+00
  5.579487851486E+00  5.454200569499E+00  5.328605353807E+00  5.202770476618E+00
  5.076766488757E+00  4.950666171209E+00  4.824544477350E+00  4.698478465440E+00
  4.572547220981E+00  4.446831768559E+00  4.321414972797E+00  4.196381428102E+00
  4.071817336886E+00  3.947810376020E+00  3.824449551278E+00  3.701825039622E+00
  3.580028019194E+00  3.459150486973E+00  3.339285064094E+00  3.220524788929E+00
  3.102962898079E+00  2.986692595544E+00  2.871806810390E+00  2.758397943382E+00
  2.646557603094E+00  2.536376332188E+00  2.427943324601E+00  2.321346134541E+00
  2.216670378313E+00  2.113999430104E+00  2.013414112996E+00  1.914992386621E+00
  1.818809032972E+00  1.724935342048E+00  1.633438799102E+00  1.544382775422E+00
  1.457826224658E+00  1.373823386838E+00  1.292423502305E+00  1.213670537898E+00
  1.137602927762E+00  1.064253331256E+00  9.936484104131E-01  9.258086294820E-01
  8.607480790169E-01  7.984743269843E-01  7.389882992685E-01  6.822841918741E-01
  6.283494169912E-01  5.771645849293E-01  5.287035237269E-01  4.829333380108E-01
  4.398145084088E-01  3.993010325082E-01  3.613406080140E-01  3.258748583750E-01
  2.928396007398E-01  2.621651556588E-01  2.337766974813E-01  2.075946439068E-01
  1.835350826436E-01  1.615102326085E-01  1.414289365870E-01  1.231971817539E-01
  1.067186439602E-01  9.189525121042E-02  7.862776131803E-02  6.681634832368E-02
  5.636119192223E-02  4.716306386485E-02  3.912390510335E-02  3.214738732822E-02
  2.613945253342E-02  2.100882432385E-02  1.666748487539E-02  1.303111176420E-02
  1.001946930597E-02  7.556749585519E-03  5.571859010144E-03  3.998646980616E-03
  2.776074131831E-03  1.848318538909E-03  1.164819297898E-03  6.802579541180E-04
  3.544793436758E-04  1.523545099422E-04  4.358943021119E-05  2.484309907602E-06
  7.649143626306E-06  4.168207505351E-05  9.081778370498E-05  1.445536598805E-04
  1.952618780686E-04  2.377956254601E-04  2.690976739692E-04  2.878191953982E-04
  2.939562115656E-04  2.885103536442E-04  2.731796950527E-04  2.500843455810E-04
  2.215302842543E-04  1.898136049381E-04  1.570659977058E-04  1.251409404392E-04
  9.553878101074E-05  6.936770243602E-05  4.733653063007E-05  2.977451051663E-05
  1.667257702939E-05  7.740308553261E-06  2.472684921574E-06  2.209799030559E-07
  2.625844927101E-07  1.865253287217E-06  4.342149511914E-06  7.095081256639E-06
  9.644410049795E-06  1.164520606444E-05  1.289025439620E-05  1.330142034150E-05
  1.291160338763E-05  1.184000752260E-05  1.026370372426E-05  8.388452220593E-06
  6.421500399507E-06  4.548609538279E-06  2.916939369690E-06  1.624696604952E-06
  7.177023830578E-07  1.923261053248E-07  3.635697309994E-09  7.718140269528E-08
  3.225983731818E-07  6.471973571818E-07  9.679037967615E-07  1.220271744138E-06
  1.363788800744E-06  1.383236728601E-06  1.286408636891E-06  1.098939901946E-06
  8.573302771114E-07  6.013824209223E-07  3.672452886183E-07  1.820438619238E-07
  6.073837811848E-08  5.444218706144E-09  0.000000000000E+00  0.000000000000E+00
  0.000000000000E+00  0.000000000000E+00  0.000000000000E+00  0.000000000000E+00
  0.000000000000E+00  0.000000000000E+00  0.000000000000E+00  0.000000000000E+00
  0.000000000000E+00  0.000000000000E+00
</data>
</radfunc>
</pseudocore-charge>
<semilocal-potentials set="scalar_relativistic">
<slps n="5" l="s" rc="2.00680014348" eref="-0.726912359872">
<radfunc>
<data npts="290">
  3.270115934738E+01  3.268672618207E+01  3.264363364665E+01  3.257191713605E+01
  3.246708326015E+01  3.233400343943E+01  3.216549725235E+01  3.197404429926E+01
  3.176066665730E+01  3.151432713466E+01  3.123982686076E+01  3.094520294800E+01
  3.059422716809E+01  3.023349018125E+01  2.987892219371E+01  2.947751505221E+01
  2.902431561483E+01  2.860340003373E+01  2.813997851197E+01  2.763109540430E+01
  2.707390052577E+01  2.659156393107E+01  2.607536632249E+01  2.552422795457E+01
  2.493726180121E+01  2.431381443465E+01  2.365350809470E+01  2.313404042903E+01
  2.259390367772E+01  2.203332559393E+01  2.145266477974E+01  2.085241795252E+01
  2.023322592483E+01  1.959587804699E+01  1.894131487451E+01  1.827062884594E+01
  1.758506279084E+01  1.688600613079E+01  1.641322351117E+01  1.593560852041E+01
  1.545367209010E+01  1.496794823550E+01  1.447899226233E+01  1.398737879024E+01
  1.349369960683E+01  1.299856136851E+01  1.250258316648E+01  1.200639397837E+01
  1.151063002718E+01  1.101593207086E+01  1.052294264631E+01  1.003230329203E+01
  9.544651773736E+00  9.060619336537E+00  8.580828006385E+00  8.105887962202E+00
  7.636394998204E+00  7.172928093919E+00  6.716047106914E+00  6.266290600615E+00
  5.824173816731E+00  5.390186798798E+00  4.964792670336E+00  4.548426068065E+00
  4.141491727676E+00  3.744363216842E+00  3.357381807568E+00  3.167793834475E+00
  2.980855477629E+00  2.796599887424E+00  2.615058028909E+00  2.436258659651E+00
  2.260228308845E+00  2.086991257572E+00  1.916569520067E+00  1.748982825874E+00
  1.584248602781E+00  1.422381960413E+00  1.263395674373E+00  1.107300170830E+00
  9.541035114595E-01  8.038113786511E-01  6.564270609148E-01  5.119514384220E-01
  3.703829686425E-01  2.317176720491E-01  9.594911788568E-02 -3.693158998630E-02
 -1.669358271232E-01 -2.940774623508E-01 -4.183728713382E-01 -5.398409497683E-01
 -6.585031259483E-01 -7.743833726652E-01 -8.875082180567E-01 -9.979067552237E-01
 -1.105610650272E+00 -1.210654148427E+00 -1.313074077804E+00 -1.412909850403E+00
 -1.510203459796E+00 -1.604999474974E+00 -1.697345029728E+00 -1.787289806920E+00
 -1.874886016910E+00 -1.960188369390E+00 -2.043254037786E+00 -2.124142615382E+00
 -2.202916062236E+00 -2.279638641932E+00 -2.354376847178E+00 -2.427199313218E+00
 -2.498176718004E+00 -2.567381668072E+00 -2.634888569034E+00 -2.700773479619E+00
 -2.765113948236E+00 -2.827988831014E+00 -2.889478090376E+00 -2.949662573245E+00
 -3.008623768072E+00 -3.066443539988E+00 -3.123203843504E+00 -3.178986412351E+00
 -3.233872426210E+00 -3.287942154293E+00 -3.341274575966E+00 -3.393946978831E+00
 -3.446034534984E+00 -3.497609856432E+00 -3.548742530985E+00 -3.599498640253E+00
 -3.649940261721E+00 -3.700124957258E+00 -3.750105250720E+00 -3.799928097743E+00
 -3.849634351118E+00 -3.899258225540E+00 -3.948826765848E+00 -3.998359323196E+00
 -4.047867043920E+00 -4.097352376112E+00 -4.146808599197E+00 -4.196219382007E+00
 -4.245558375009E+00 -4.294788842538E+00 -4.343863340922E+00 -4.392723448533E+00
 -4.441299553761E+00 -4.489510706972E+00 -4.537264542456E+00 -4.584457276341E+00
 -4.630973786413E+00 -4.676687779705E+00 -4.721462053691E+00 -4.765148856873E+00