<?xml version="1.0" encoding="UTF-8" ?>
<psml version="1.1" energy_unit="hartree" length_unit="bohr"
 uuid="6bb27500-1d65-11e8-50a3-cba41ff49f52"
 xmlns="http://esl.cecam.org/PSML/ns/1.1">
<provenance creator="ONCVPSP-3.3.0+psml-3.3.0-73 (scalar-relativistic)"
 date="2018-03-01">
<annotation action="semilocal-pseudopotential-generation"
 action-cont="projectors-generation" />
<input-file name="oncvpsp-input">
<![CDATA[# atsym z nc nv iexc psfile
Ni 28 3 4 -116133 upf
# n l f
1 0 2.0
2 0 2.0
2 1 6.0
3 0 2.0
3 1 6.0
3 2 8.0
4 0 2.0
# lmax
2
# l rc ep ncon nbas qcut
0 1.2 0.0 4 8 10.2
1 1.25 0.0 4 8 10.0
2 1.55 0.0 4 8 10.0
# lloc lpopt rc5 dvloc0
4 5 1.2 0.0
# l nproj debl
0 2 1.0
1 2 2.8
2 2 1.0
# icmod fcfact
3 3 1.7
# epsh1 epsh2 depsh
-12.0 12.0 0.02
# rlmax drl
6.0 0.01
 0
]]>
</input-file>
</provenance>
<pseudo-atom-spec atomic-label="Ni" atomic-number="28" z-pseudo="18"
 flavor="Hamann&apos;s oncvpsp" relativity="scalar" spin-dft="no"
 core-corrections="yes">
<annotation pseudo-energy="-164.961179299" />
<exchange-correlation>
<annotation oncvpsp-xc-code="-116133" oncvpsp-xc-type="libxc-interface" />
<libxc-info number-of-functionals="2">
<functional name="Perdew, Burke &amp; Ernzerhof SOL (GGA)" type="exchange"
 id="116" />
<functional name="Perdew, Burke &amp; Ernzerhof SOL (GGA)" type="correlation"
 id="133" />
</libxc-info>
</exchange-correlation>
<valence-configuration total-valence-charge="18">
<shell n="3" l="s" occupation="2" />
<shell n="3" l="p" occupation="6" />
<shell n="3" l="d" occupation="8" />
<shell n="4" l="s" occupation="2" />
</valence-configuration>
</pseudo-atom-spec>
<grid npts="457">
<annotation type="sampled from oncvpsp log grid"
 recipe="r(i:1..N) = r1*exp(a*(i-1)) + r=0; resampled"
 recipe-cont="r1: scale; a: step" scale="0.178571428571E-04"
 step="0.119285708653E-01" delta="0.500000000000E-02" rmax="44.1127774257" />
<grid-data>
  0.000000000000E+00  5.037260227087E-03  1.006153199362E-02  1.509390240677E-02
  2.009712055657E-02  2.520946187690E-02  3.051067215696E-02  3.562857378909E-02
  4.111161976253E-02  4.632012396247E-02  5.156966681787E-02  5.673334959985E-02
  6.241407314470E-02  6.784941587428E-02  7.288349463671E-02  7.829107623126E-02
  8.409987265294E-02  8.926843081494E-02  9.475463504026E-02  1.005780070250E-01
  1.067592682175E-01  1.119766932335E-01  1.174490986765E-01  1.231889456778E-01
  1.292093043559E-01  1.355238835779E-01  1.421470621764E-01  1.473260095757E-01
  1.526936453359E-01  1.582568440774E-01  1.640227308887E-01  1.699986904517E-01
  1.761923764999E-01  1.826117216210E-01  1.892649474162E-01  1.961605750303E-01
  2.033074360652E-01  2.107146838912E-01  2.158021792191E-01  2.210125070342E-01
  2.263486330040E-01  2.318135943992E-01  2.374105018224E-01  2.431425409784E-01
  2.490129744878E-01  2.550251437438E-01  2.611824708144E-01  2.674884603897E-01
  2.739467017774E-01  2.805608709451E-01  2.873347326132E-01  2.942721423974E-01
  3.013770490034E-01  3.086534964746E-01  3.161056264935E-01  3.237376807395E-01
  3.315540033033E-01  3.395590431590E-01  3.477573566971E-01  3.561536103172E-01
  3.647525830847E-01  3.735591694507E-01  3.825783820379E-01  3.918153544938E-01
  4.012753444127E-01  4.109637363282E-01  4.208860447781E-01  4.259366773154E-01
  4.310479174432E-01  4.362204924526E-01  4.414551383620E-01  4.467526000223E-01
  4.521136312226E-01  4.575389947973E-01  4.630294627348E-01  4.685858162877E-01
  4.742088460831E-01  4.798993522361E-01  4.856581444629E-01  4.914860421965E-01
  4.973838747028E-01  5.033524811993E-01  5.093927109737E-01  5.155054235054E-01
  5.216914885874E-01  5.279517864505E-01  5.342872078879E-01  5.406986543825E-01
  5.471870382351E-01  5.537532826939E-01  5.603983220863E-01  5.671231019513E-01
  5.739285791747E-01  5.808157221248E-01  5.877855107903E-01  5.948389369198E-01
  6.019770041628E-01  6.092007282128E-01  6.165111369513E-01  6.239092705948E-01
  6.313961818419E-01  6.389729360240E-01  6.466406112563E-01  6.544002985914E-01
  6.622531021745E-01  6.702001394006E-01  6.782425410734E-01  6.863814515662E-01
  6.946180289850E-01  7.029534453329E-01  7.113888866768E-01  7.199255533170E-01
  7.285646599568E-01  7.373074358763E-01  7.461551251068E-01  7.551089866081E-01
  7.641702944473E-01  7.733403379807E-01  7.826204220365E-01  7.920118671009E-01
  8.015160095061E-01  8.111342016202E-01  8.208678120397E-01  8.307182257841E-01
  8.406868444935E-01  8.507750866275E-01  8.609843876670E-01  8.713162003190E-01
  8.817719947228E-01  8.923532586595E-01  9.030614977634E-01  9.138982357366E-01
  9.248650145654E-01  9.359633947402E-01  9.471949554771E-01  9.585612949428E-01
  9.700640304821E-01  9.817047988479E-01  9.934852564341E-01  1.005407079511E+00
  1.017471964465E+00  1.029681628039E+00  1.042037807575E+00  1.054542261266E+00
  1.067196768402E+00  1.080003129622E+00  1.092963167178E+00  1.106078725184E+00
  1.119351669886E+00  1.132783889925E+00  1.146377296604E+00  1.160133824163E+00
  1.174055430053E+00  1.188144095214E+00  1.202401824356E+00  1.216830646249E+00
  1.231432614004E+00  1.246209805372E+00  1.261164323036E+00  1.276298294913E+00
  1.291613874451E+00  1.307113240945E+00  1.322798599836E+00  1.338672183034E+00
  1.354736249231E+00  1.370993084221E+00  1.387445001232E+00  1.404094341247E+00
  1.420943473342E+00  1.437994795022E+00  1.455250732562E+00  1.472713741353E+00
  1.490386306249E+00  1.508270941924E+00  1.526370193227E+00  1.544686635546E+00
  1.563222875173E+00  1.581981549675E+00  1.600965328271E+00  1.620176912210E+00
  1.639619035157E+00  1.659294463578E+00  1.679205997141E+00  1.699356469107E+00
  1.719748746736E+00  1.740385731697E+00  1.761270360478E+00  1.782405604803E+00
  1.803794472061E+00  1.825440005726E+00  1.847345285794E+00  1.869513429224E+00
  1.891947590375E+00  1.914650961459E+00  1.937626772997E+00  1.960878294273E+00
  1.984408833804E+00  2.008221739809E+00  2.032320400687E+00  2.056708245495E+00
  2.081388744441E+00  2.106365409375E+00  2.131641794287E+00  2.157221495819E+00
  2.183108153768E+00  2.209305451614E+00  2.235817117033E+00  2.262646922437E+00
  2.289798685507E+00  2.317276269733E+00  2.345083584969E+00  2.373224587989E+00
  2.401703283045E+00  2.430523722442E+00  2.459690007111E+00  2.489206287196E+00
  2.519076762643E+00  2.549305683794E+00  2.579897352000E+00  2.610856120224E+00
  2.642186393666E+00  2.673892630390E+00  2.705979341955E+00  2.738451094059E+00
  2.771312507187E+00  2.804568257274E+00  2.838223076361E+00  2.872281753277E+00
  2.906749134316E+00  2.941630123928E+00  2.976929685415E+00  3.012652841640E+00
  3.048804675740E+00  3.085390331849E+00  3.122415015831E+00  3.159883996021E+00
  3.197802603973E+00  3.236176235221E+00  3.275010350044E+00  3.314310474244E+00
  3.354082199935E+00  3.394331186334E+00  3.435063160570E+00  3.476283918497E+00
  3.517999325519E+00  3.560215317425E+00  3.602937901235E+00  3.646173156049E+00
  3.689927233922E+00  3.734206360729E+00  3.779016837058E+00  3.824365039102E+00
  3.870257419572E+00  3.916700508607E+00  3.963700914710E+00  4.011265325686E+00
  4.059400509595E+00  4.108113315710E+00  4.157410675498E+00  4.207299603604E+00
  4.257787198847E+00  4.308880645234E+00  4.360587212976E+00  4.412914259532E+00
  4.465869230647E+00  4.519459661414E+00  4.573693177351E+00  4.628577495479E+00
  4.684120425425E+00  4.740329870530E+00  4.797213828977E+00  4.854780394924E+00
  4.913037759664E+00  4.971994212779E+00  5.031658143333E+00  5.092038041053E+00
  5.153142497545E+00  5.214980207516E+00  5.277559970006E+00  5.340890689646E+00
  5.404981377922E+00  5.469841154457E+00  5.535479248311E+00  5.601904999290E+00
  5.669127859282E+00  5.737157393593E+00  5.806003282316E+00  5.875675321704E+00
  5.946183425565E+00  6.017537626671E+00  6.089748078191E+00  6.162825055130E+00
  6.236778955791E+00  6.311620303261E+00  6.387359746900E+00  6.464008063863E+00
  6.541576160629E+00  6.620075074557E+00  6.699515975451E+00  6.779910167157E+00
  6.861269089162E+00  6.943604318232E+00  7.026927570051E+00  7.111250700892E+00
  7.196585709303E+00  7.282944737814E+00  7.370340074668E+00  7.458784155564E+00
  7.548289565431E+00  7.638869040216E+00  7.730535468698E+00  7.823301894323E+00
  7.917181517055E+00  8.012187695259E+00  8.108333947603E+00  8.205633954974E+00
  8.304101562433E+00  8.403750781183E+00  8.504595790557E+00  8.606650940043E+00
  8.709930751324E+00  8.814449920340E+00  8.920223319384E+00  9.027265999217E+00
  9.135593191207E+00  9.245220309502E+00  9.356162953216E+00  9.468436908654E+00
  9.582058151558E+00  9.697042849377E+00  9.813407363569E+00  9.931168251932E+00
  1.005034227096E+01  1.017094637821E+01  1.029299773475E+01  1.041651370756E+01
  1.054151187205E+01  1.066801001452E+01  1.079602613469E+01  1.092557844831E+01
  1.105668538969E+01  1.118936561436E+01  1.132363800174E+01  1.145952165776E+01
  1.159703591765E+01  1.173620034866E+01  1.187703475285E+01  1.201955916988E+01
  1.216379387992E+01  1.230975940648E+01  1.245747651936E+01  1.260696623759E+01
  1.275824983244E+01  1.291134883043E+01  1.306628501639E+01  1.322308043659E+01
  1.338175740183E+01  1.354233849065E+01  1.370484655254E+01  1.386930471117E+01
  1.403573636770E+01  1.420416520412E+01  1.437461518657E+01  1.454711056880E+01
  1.472167589563E+01  1.489833600638E+01  1.507711603845E+01  1.525804143092E+01
  1.544113792809E+01  1.562643158322E+01  1.581394876222E+01  1.600371614737E+01
  1.619576074114E+01  1.639010987003E+01  1.658679118847E+01  1.678583268273E+01
  1.698726267493E+01  1.719110982702E+01  1.739740314495E+01  1.760617198269E+01
  1.781744604648E+01  1.803125539904E+01  1.824763046383E+01  1.846660202939E+01
  1.868820125375E+01  1.891245966879E+01  1.913940918482E+01  1.936908209503E+01
  1.960151108017E+01  1.983672921314E+01  2.007476996369E+01  2.031566720326E+01
  2.055945520970E+01  2.080616867221E+01  2.105584269628E+01  2.130851280864E+01
  2.156421496234E+01  2.182298554189E+01  2.208486136839E+01  2.234987970481E+01
  2.261807826127E+01  2.288949520040E+01  2.316416914281E+01  2.344213917252E+01
  2.372344484259E+01  2.400812618070E+01  2.429622369487E+01  2.458777837921E+01
  2.488283171976E+01  2.518142570040E+01  2.548360280880E+01  2.578940604251E+01
  2.609887891502E+01  2.641206546200E+01  2.672901024754E+01  2.704975837051E+01
  2.737435547096E+01  2.770284773661E+01  2.803528190945E+01  2.837170529236E+01
  2.871216575587E+01  2.905671174494E+01  2.940539228588E+01  2.975825699331E+01
  3.011535607723E+01  3.047674035016E+01  3.084246123436E+01  3.121257076917E+01
  3.158712161840E+01  3.196616707782E+01  3.234976108276E+01  3.273795821575E+01
  3.313081371434E+01  3.352838347891E+01  3.393072408066E+01  3.433789276963E+01
  3.474994748286E+01  3.516694685266E+01  3.558895021489E+01  3.601601761747E+01
  3.644820982888E+01  3.688558834682E+01  3.732821540699E+01  3.777615399187E+01
  3.822946783977E+01  3.868822145385E+01  3.915248011129E+01  3.962230987263E+01
  4.009777759110E+01  4.057895092220E+01  4.106589833326E+01  4.155868911326E+01
  4.205739338262E+01  4.256208210321E+01  4.307282708845E+01  4.358970101351E+01
  4.411277742567E+01
</grid-data>
</grid>
<valence-charge total-charge="18" is-unscreening-charge="yes"
 rescaled-to-z-pseudo="no">
<radfunc>
<data npts="457">
  1.332680100333E+01  1.333653810328E+01  1.336564083463E+01  1.341417855482E+01
  1.348163014343E+01  1.357026430053E+01  1.368313257008E+01  1.381224575766E+01
  1.397240276843E+01  1.414531332213E+01  1.433990344916E+01  1.455103593398E+01
  1.480567991736E+01  1.507101676832E+01  1.533545335866E+01  1.563926478017E+01
  1.598807389637E+01  1.631767516833E+01  1.668700157637E+01  1.710054048069E+01
  1.756320190118E+01  1.797227786059E+01  1.841914874775E+01  1.890693826365E+01
  1.943894598288E+01  2.001863700805E+01  2.064962505249E+01  2.115877417512E+01
  2.170048933633E+01  2.227639888522E+01  2.288813482513E+01  2.353731625532E+01
  2.422552934406E+01  2.495430333104E+01  2.572508200988E+01  2.653919009636E+01
  2.739779384789E+01  2.830185526828E+01  2.893017757755E+01  2.957915619775E+01
  3.024885271671E+01  3.093924751804E+01  3.165022929440E+01  3.238158372499E+01
  3.313298129743E+01  3.390396426286E+01  3.469393272423E+01  3.550212987157E+01
  3.632762639500E+01  3.716930412608E+01  3.802583898250E+01  3.889568331919E+01
  3.977704782169E+01  4.066788311558E+01  4.156586130870E+01  4.246835773149E+01
  4.337243319509E+01  4.427481714613E+01  4.517189216263E+01  4.605968030483E+01
  4.693383190849E+01  4.778961748438E+01  4.862192346479E+01  4.942525261357E+01
  5.019372998688E+01  5.092111539543E+01  5.160082336841E+01  5.192065276549E+01
  5.222595165199E+01  5.251581399229E+01  5.278931928266E+01  5.304553433566E+01
  5.328351525222E+01  5.350230958773E+01  5.370095871802E+01  5.387850041009E+01
  5.403397160172E+01  5.416641139309E+01  5.427486425212E+01  5.435838343425E+01
  5.441603461540E+01  5.444689973578E+01  5.445008104970E+01  5.442470537509E+01
  5.436992853402E+01  5.428493997294E+01  5.416896754925E+01  5.402128246783E+01
  5.384120434839E+01  5.362810640153E+01  5.338142068833E+01  5.310064343518E+01
  5.278534037198E+01  5.243515205913E+01  5.204979916472E+01  5.162908765084E+01
  5.117291382406E+01  5.068126920273E+01  5.015424515049E+01  4.959203722307E+01
  4.899494917326E+01  4.836339655699E+01  4.769790988224E+01  4.699913724179E+01
  4.626784637057E+01  4.550492606915E+01  4.471138693625E+01  4.388836135540E+01
  4.303710268424E+01  4.215898359916E+01  4.125549355332E+01  4.032823531242E+01
  3.937892054035E+01  3.840936441527E+01  3.742147926671E+01  3.641726723479E+01
  3.539881196492E+01  3.436826936354E+01  3.332785745441E+01  3.227984538863E+01
  3.122654167609E+01  3.017028172082E+01  2.911341475673E+01  2.805829029468E+01
  2.700724420479E+01  2.596258457025E+01  2.492657745967E+01  2.390143277402E+01
  2.288929033097E+01  2.189220635414E+01  2.091214053619E+01  1.995094384348E+01
  1.901034722561E+01  1.809195138500E+01  1.719721775083E+01  1.632746078648E+01
  1.548384174237E+01  1.466736394467E+01  1.387886968708E+01  1.311903876716E+01
  1.238838868082E+01  1.168727646044E+01  1.101590211256E+01  1.037431358279E+01
  9.762413147785E+00  9.179965108282E+00  8.626604634287E+00  8.101847593655E+00
  7.605101179529E+00  7.135675140972E+00  6.692793414926E+00  6.275605956757E+00
  5.883200571214E+00  5.514614555581E+00  5.168845981960E+00  4.844864749020E+00
  4.541624042935E+00  4.258071457250E+00  3.993156709833E+00  3.745838305118E+00
  3.515088243620E+00  3.299895948341E+00  3.099274140999E+00  2.912264014189E+00
  2.737939865664E+00  2.575413145696E+00  2.423835937380E+00  2.282403889639E+00
  2.150358619938E+00  2.026989598927E+00  1.911635523169E+00  1.803685175424E+00
  1.702577765879E+00  1.607802742829E+00  1.518899058862E+00  1.435453879100E+00
  1.357100722165E+00  1.283515269378E+00  1.214403813708E+00  1.149487961128E+00
  1.088504253715E+00  1.031203578102E+00  9.773506815570E-01  9.267236752765E-01
  8.791135285388E-01  8.343235570476E-01  7.921689085229E-01  7.524760483099E-01
  7.150822475085E-01  6.798350758603E-01  6.465919013808E-01  6.152193984867E-01
  5.855930661429E-01  5.575967573431E-01  5.311222210438E-01  5.060686574894E-01
  4.823422877000E-01  4.598559377383E-01  4.385286382367E-01  4.182852395320E-01
  3.990560426435E-01  3.807764462226E-01  3.633866095067E-01  3.468311312244E-01
  3.310587443203E-01  3.160220262994E-01  3.016771249288E-01  2.879834989805E-01
  2.749036736515E-01  2.624030102557E-01  2.504494897526E-01  2.390135096418E-01
  2.280676937380E-01  2.175867143191E-01  2.075471261289E-01  1.979272117095E-01
  1.887068375343E-01  1.798673204123E-01  1.713913036392E-01  1.632626423762E-01
  1.554662977476E-01  1.479882391588E-01  1.408153543493E-01  1.339353667108E-01
  1.273367594146E-01  1.210087059105E-01  1.149410063772E-01  1.091240297189E-01
  1.035486607252E-01  9.820625202582E-02  9.308858049151E-02  8.818780775102E-02
  8.349644450964E-02  7.900731837457E-02  7.471354490796E-02  7.060850164585E-02
  6.668580483736E-02  6.293928867442E-02  5.936298679769E-02  5.595111587969E-02
  5.269806110018E-02  4.959836334365E-02  4.664670796175E-02  4.383791495716E-02
  4.116693045740E-02  3.862881935336E-02  3.621875902524E-02  3.393203399509E-02
  3.176403147982E-02  2.971023773339E-02  2.776623511056E-02  2.592769978502E-02
  2.419040005910E-02  2.255019520605E-02  2.100303478842E-02  1.954495839740E-02
  1.817209575930E-02  1.688066715494E-02  1.566698409846E-02  1.452745022126E-02
  1.345856230735E-02  1.245691142685E-02  1.151918411504E-02  1.064216354683E-02
  9.822730658346E-03  9.057865171227E-03  8.344646478895E-03  7.680254359013E-03
  7.061969481411E-03  6.487173686463E-03  5.953350014627E-03  5.458082473747E-03
  4.999055536412E-03  4.574053365140E-03  4.180958768250E-03  3.817751893868E-03
  3.482508673588E-03  3.173399030778E-03  2.888684871336E-03  2.626717876990E-03
  2.385937122788E-03  2.164866541561E-03  1.962112258616E-03  1.776359819997E-03
  1.606371337270E-03  1.450982571065E-03  1.309099974547E-03  1.179697716718E-03
  1.061814703944E-03  9.545516165050E-04  8.570679752231E-04  7.685792514833E-04
  6.883540321904E-04  6.157112494797E-04  5.500174833300E-04  4.906843436595E-04
  4.371659370189E-04  3.889564216685E-04  3.455876536306E-04  3.066269252605E-04
  2.716747969768E-04  2.403630220287E-04  2.123525635531E-04  1.873317026659E-04
  1.650142359460E-04  1.451377603673E-04  1.274620435289E-04  1.117674768832E-04
  9.785360957286E-05  8.553776043966E-05  7.465370574379E-05  6.505044013726E-05
  5.659100844376E-05  4.915140581767E-05  4.261954387419E-05  3.689428040152E-05
  3.188451028198E-05  2.750831526084E-05  2.369217021090E-05  2.037020354724E-05
  1.748350945163E-05  1.497950957180E-05  1.281136186750E-05  1.093741428592E-05
  9.320700963366E-06  7.928478670252E-06  6.731801243026E-06  5.705129779690E-06
  4.825976416114E-06  4.074579547846E-06  3.433608416485E-06  2.887895043918E-06
  2.424191541674E-06  2.030951014076E-06  1.698129927824E-06  1.417010981371E-06
  1.180043606575E-06  9.807021404362E-07  8.133584553194E-07  6.731688962953E-07
  5.559740362785E-07  4.582098740581E-07  3.768293654857E-07  3.092332221221E-07
  2.532090694711E-07  2.068780954829E-07  1.686483813852E-07  1.371741799766E-07
  1.113204725130E-07  9.013219755913E-08  7.280760345044E-08  5.867523030037E-08
  4.717407785088E-08  3.783656196840E-08  3.027390535199E-08  2.416364718014E-08
  1.923899213696E-08  1.527975170164E-08  1.210465994238E-08  9.564872520115E-09
  7.538481374080E-09  5.925898827249E-09  4.645983808697E-09  3.632799731911E-09
  2.832908476252E-09  2.203118068783E-09  1.708613222619E-09  1.321408013025E-09
  1.019068811609E-09  7.836632850678E-10  6.005420123376E-10  4.591581664284E-10
  3.500229726006E-10  2.660304436200E-10  2.015819805338E-10  1.522798600374E-10
  1.146801417417E-10  8.609409152019E-11  6.442909270255E-11  4.806159435068E-11
  3.573596799365E-11  2.648424848705E-11  1.956265377944E-11  1.440154067856E-11
  1.056608373579E-11  7.725483216991E-12  5.628933893232E-12  4.086934510928E-12
  2.956801413416E-12  2.131479998519E-12  1.530933876202E-12  1.095541601367E-12
  7.810512739464E-13  5.547395955175E-13  3.924986873683E-13  2.766348564175E-13
  1.942116238651E-13  1.358072295445E-13  9.458654954608E-14  6.561058564352E-14
  4.532475235461E-14  3.118118776540E-14  2.136111848476E-14  1.457161229640E-14
  9.897406443928E-15  6.693341828107E-15  4.506607702885E-15  3.020777409188E-15
  2.015703754798E-15  1.338906348124E-15  8.852489728434E-16  5.825702818392E-16
  3.815702635057E-16  2.487249530233E-16  1.613458775106E-16  1.041513267602E-16
  6.689822396326E-17  4.275445141602E-17  2.718559637089E-17  1.719731541737E-17
  1.082230786140E-17  6.774689436000E-18  4.218341096208E-18  2.612455950181E-18
  1.609100187883E-18  9.856336643878E-19  6.003679046173E-19  3.636300067343E-19
  2.189841731956E-19  1.311132575392E-19  7.804248444050E-20  4.617804300362E-20
  2.715994559155E-20  1.587741434633E-20  9.224786561314E-21  5.326306923403E-21
  3.056025445749E-21  0.000000000000E+00  0.000000000000E+00  0.000000000000E+00
  0.000000000000E+00  0.000000000000E+00  0.000000000000E+00  0.000000000000E+00
  0.000000000000E+00  0.000000000000E+00  0.000000000000E+00  0.000000000000E+00
  0.000000000000E+00  0.000000000000E+00  0.000000000000E+00  0.000000000000E+00
  0.000000000000E+00  0.000000000000E+00  0.000000000000E+00  0.000000000000E+00
  0.000000000000E+00
</data>
</radfunc>
</valence-charge>
<pseudocore-charge matching-radius="0.382578382038"
 number-of-continuous-derivatives="4">
<annotation model-charge-form="Teter function with specified parameters" />
<radfunc>
<data npts="290">
  1.567526869866E+02  1.567229811960E+02  1.566342014461E+02  1.564861558455E+02
  1.562804660795E+02  1.560102612027E+02  1.556663086160E+02  1.552730308128E+02
  1.547854582681E+02  1.542593865883E+02  1.536677593486E+02  1.530263169752E+02
  1.522533411404E+02  1.514486664404E+02  1.506474853462E+02  1.497279382636E+02
  1.486734084848E+02  1.476781229269E+02  1.465642166864E+02  1.453186120130E+02
  1.439270732654E+02  1.426984493881E+02  1.413581457136E+02  1.398972512927E+02
  1.383064041799E+02  1.365758275530E+02  1.346953829785E+02  1.331804349324E+02
  1.315708515119E+02  1.298621274647E+02  1.280497611211E+02  1.261292957163E+02
  1.240963677582E+02  1.219467631003E+02  1.196764813638E+02  1.172818093101E+02
  1.147594036898E+02  1.121063839836E+02  1.102639710143E+02  1.083619412783E+02
  1.063999213681E+02  1.043777045794E+02  1.022952685426E+02  1.001527935855E+02
  9.795068173855E+01  9.568957627097E+01  9.337038161841E+01  9.099428353461E+01
  8.856276926534E+01  8.607764750850E+01  8.354106788616E+01  8.095553961432E+01
  7.832394901411E+01  7.564957546545E+01  7.293610536029E+01  7.018764357032E+01
  6.740872190285E+01  6.460430398142E+01  6.177978595558E+01  5.894099241967E+01
  5.609416690571E+01  5.324595631299E+01  5.040338865051E+01  4.757384350005E+01
  4.476501466178E+01  4.198486452337E+01  3.924156980178E+01  3.788634170669E+01
  3.654345844620E+01  3.521397283505E+01  3.389893766432E+01  3.259940298124E+01
  3.131641324355E+01  3.005100435434E+01  2.880420058462E+01  2.757701139218E+01
  2.637042814649E+01  2.518542077112E+01  2.402293431605E+01  2.288388547439E+01
  2.176915905881E+01  2.067960445497E+01  1.961603207051E+01  1.857920979948E+01
  1.756985952378E+01  1.658865367423E+01  1.563621187523E+01  1.471309769823E+01
  1.381981554995E+01  1.295680772239E+01  1.212445163212E+01  1.132305727704E+01
  1.055286493857E+01  9.814043157644E+00  9.106687012199E+00  8.430816723238E+00
  7.786376615597E+00  7.173234458059E+00  6.591181205737E+00  6.039931165447E+00
  5.519122602211E+00  5.028318802022E+00  4.567009602575E+00  4.134613399842E+00
  3.730479634131E+00  3.353891754658E+00  3.004070656730E+00  2.680178580346E+00
  2.381323453563E+00  2.106563658237E+00  1.854913189938E+00  1.625347177982E+00
  1.416807725689E+00  1.228210025329E+00  1.058448696770E+00  9.064042938269E-01
  7.709499177185E-01  6.509578730965E-01  5.453062988759E-01  4.528857037086E-01
  3.726053345193E-01  3.033993061569E-01  2.442324210081E-01  1.941056094373E-01
  1.520609252181E-01  1.171860347389E-01  8.861814469014E-02  6.554732015565E-02
  4.721915346521E-02  3.293675372184E-02  2.206203746008E-02  1.401631224557E-02
  8.280156980506E-03  4.392614990881E-03  1.949728363149E-03  6.024541716122E-04
  5.401487464337E-05  5.674593102210E-05  4.085132699057E-04  9.487813236608E-04
  1.554418609699E-03  2.135332069134E-03  2.630023328579E-03  3.001159599409E-03
  3.231248990631E-03  3.318504592499E-03  3.272973881342E-03  3.112999986778E-03
  2.862069427401E-03  2.546087425051E-03  2.191107295086E-03  1.821525191257E-03
  1.458736217707E-03  1.120233192770E-03  8.191157460101E-04  5.639655105178E-04
  3.590334397400E-04  2.046781492652E-04  9.798996398816E-05  3.353420938935E-05
  4.149239414166E-06  1.739597903914E-06  1.801225892002E-05  4.511362469457E-05
  7.613628779767E-05  1.054767951485E-04  1.290380337009E-04  1.442816254862E-04
  1.501461457213E-04  1.468554248168E-04  1.356471657137E-04  1.184552852769E-04
  9.757966624383E-05  7.537450290442E-05  5.398147851953E-05  3.512716219282E-05
  1.999594951848E-05  9.181383398292E-06  2.710593142494E-06  1.296441287477E-07
  6.324326378734E-07  3.212833554049E-06  6.819313010445E-06  1.049308792422E-05
  1.347482173788E-05  1.527023534512E-05  1.567116497287E-05  1.473471758887E-05
  1.272848327353E-05  1.005360843451E-05  7.159468476108E-06  4.463529824935E-06
  2.287883072310E-06  8.202670921085E-07  1.028169328727E-07  0.000000000000E+00
  0.000000000000E+00  0.000000000000E+00  0.000000000000E+00  0.000000000000E+00
  0.000000000000E+00  0.000000000000E+00  0.000000000000E+00  0.000000000000E+00
  0.000000000000E+00  0.000000000000E+00  0.000000000000E+00  0.000000000000E+00
  0.000000000000E+00  0.000000000000E+00  0.000000000000E+00  0.000000000000E+00
  0.000000000000E+00  0.000000000000E+00  0.000000000000E+00  0.000000000000E+00
  0.000000000000E+00  0.000000000000E+00  0.000000000000E+00  0.000000000000E+00
  0.000000000000E+00  0.000000000000E+00  0.000000000000E+00  0.000000000000E+00
  0.000000000000E+00  0.000000000000E+00  0.000000000000E+00  0.000000000000E+00
  0.000000000000E+00  0.000000000000E+00  0.000000000000E+00  0.000000000000E+00
  0.000000000000E+00  0.000000000000E+00  0.000000000000E+00  0.000000000000E+00
  0.000000000000E+00  0.000000000000E+00  0.000000000000E+00  0.000000000000E+00
  0.000000000000E+00  0.000000000000E+00  0.000000000000E+00  0.000000000000E+00
  0.000000000000E+00  0.000000000000E+00  0.000000000000E+00  0.000000000000E+00
  0.000000000000E+00  0.000000000000E+00  0.000000000000E+00  0.000000000000E+00
  0.000000000000E+00  0.000000000000E+00  0.000000000000E+00  0.000000000000E+00
  0.000000000000E+00  0.000000000000E+00  0.000000000000E+00  0.000000000000E+00
  0.000000000000E+00  0.000000000000E+00  0.000000000000E+00  0.000000000000E+00
  0.000000000000E+00  0.000000000000E+00  0.000000000000E+00  0.000000000000E+00
  0.000000000000E+00  0.000000000000E+00  0.000000000000E+00  0.000000000000E+00
  0.000000000000E+00  0.000000000000E+00  0.000000000000E+00  0.000000000000E+00
  0.000000000000E+00  0.000000000000E+00  0.000000000000E+00  0.000000000000E+00
  0.000000000000E+00  0.000000000000E+00  0.000000000000E+00  0.000000000000E+00
  0.000000000000E+00  0.000000000000E+00  0.000000000000E+00  0.000000000000E+00
  0.000000000000E+00  0.000000000000E+00
</data>
</radfunc>
</pseudocore-charge>
<semilocal-potentials set="scalar_relativistic">
<slps n="3" l="s" rc="1.20240182436" eref="-4.07099795717">
<radfunc>
<data npts="290">
 -2.389146252130E+01 -2.389227153951E+01 -2.389468925716E+01 -2.389872058252E+01
 -2.390432082446E+01 -2.391167626398E+01 -2.392103704043E+01 -2.393173717252E+01
 -2.394499828186E+01 -2.395930078548E+01 -2.397537839979E+01 -2.399280105847E+01
 -2.401378418672E+01 -2.403561340174E+01 -2.405733297577E+01 -2.408224275024E+01
 -2.411078405743E+01 -2.413769679985E+01 -2.416778747444E+01 -2.420139782906E+01
 -2.423889716582E+01 -2.427196219291E+01 -2.430798421226E+01 -2.434718772187E+01
 -2.438980555483E+01 -2.443607703012E+01 -2.448624544493E+01 -2.452657597517E+01
 -2.456933767558E+01 -2.461463003600E+01 -2.466254873191E+01 -2.471318389984E+01
 -2.476661812439E+01 -2.482292410371E+01 -2.488216195816E+01 -2.494437614607E+01
 -2.500959194906E+01 -2.507781148989E+01 -2.512494860912E+01 -2.517339464583E+01
 -2.522312702948E+01 -2.527411524938E+01 -2.532632002766E+01 -2.537969243905E+01
 -2.543417297689E+01 -2.548969056582E+01 -2.554616152190E+01 -2.560348846175E+01
 -2.566155916336E+01 -2.572024538194E+01 -2.577940162559E+01 -2.583886389669E+01
 -2.589844840645E+01 -2.595795027156E+01 -2.601714220366E+01 -2.607577320411E+01
 -2.613356727864E+01 -2.619022218825E+01 -2.624540825517E+01 -2.629876724422E+01
 -2.634991134269E+01 -2.639842226301E+01 -2.644385049496E+01 -2.648571473523E+01
 -2.652350152399E+01 -2.655666511873E+01 -2.658462763718E+01 -2.659646921890E+01
 -2.660677950117E+01 -2.661547746174E+01 -2.662248021444E+01 -2.662770305409E+01
 -2.663105950797E+01 -2.663246139416E+01 -2.663181888690E+01 -2.662904058944E+01
 -2.662403361455E+01 -2.661670367296E+01 -2.660695517022E+01 -2.659469131208E+01
 -2.657981421885E+01 -2.656222504905E+01 -2.654182413254E+01 -2.651851111372E+01
 -2.649218510479E+01 -2.646274484969E+01 -2.643008889881E+01 -2.639411579476E+01
 -2.635472426951E+01 -2.631181345307E+01 -2.626528309375E+01 -2.621503379017E+01
 -2.616096723497E+01 -2.610298647002E+01 -2.604099615305E+01 -2.597490283515E+01
 -2.590461524887E+01 -2.583004460593E+01 -2.575110490411E+01 -2.566771324196E+01
 -2.557979014039E+01 -2.548725986981E+01 -2.539005078114E+01 -2.528809563938E+01
 -2.518133195785E+01 -2.506970233143E+01 -2.495315476708E+01 -2.483164301000E+01
 -2.470512686386E+01 -2.457357250382E+01 -2.443695278147E+01 -2.429524752081E+01
 -2.414844380546E+01 -2.399653625723E+01 -2.383952730732E+01 -2.367742746171E+01
 -2.351025556343E+01 -2.333803905491E+01 -2.316081424475E+01 -2.297862658409E+01
 -2.279153095868E+01 -2.259959200403E+01 -2.240288445207E+01 -2.220149351884E+01
 -2.199551534447E+01 -2.178505749773E+01 -2.157023955933E+01 -2.135119379988E+01
 -2.112806597008E+01 -2.090101622299E+01 -2.067022019012E+01 -2.043587023535E+01
 -2.019817691250E+01 -1.995737065475E+01 -1.971370372492E+01 -1.946745245735E+01
 -1.921891982162E+01 -1.896843833773E+01 -1.871637336951E+01 -1.846312681875E+01
 -1.820914123541E+01 -1.795490434965E+01 -1.770095401857E+01 -1.744788356393E+01
 -1.719634745728E+01 -1.694706728507E+01 -1.670083789942E+01 -1.645853363043E+01
 -1.622111440444E+01 -1.598963158079E+01 -1.576523328912E+01 -1.554916903044E+01
 -1.534279317843E+01 -1.514756720200E+01 -1.496506217022E+01 -1.479044713740E+01