<?xml version="1.0" encoding="UTF-8" ?>
<psml version="1.1" energy_unit="hartree" length_unit="bohr"
 uuid="d9759320-1d5f-11e8-6cab-54017bf79803"
 xmlns="http://esl.cecam.org/PSML/ns/1.1">
<provenance creator="ONCVPSP-3.3.0+psml-3.3.0-73 (scalar-relativistic)"
 date="2018-03-01">
<annotation action="semilocal-pseudopotential-generation"
 action-cont="projectors-generation" />
<input-file name="oncvpsp-input">
<![CDATA[# atsym z nc nv iexc psfile
Zn 30 3 4 -116133 upf
# n l f
1 0 2.0
2 0 2.0
2 1 6.0
3 0 2.0
3 1 6.0
3 2 10.0
4 0 2.0
# lmax
2
# l rc ep ncon nbas qcut
0 1.35 0.0 4 9 8.8
1 1.65 0.0 4 9 9.0
2 1.85 0.0 4 9 9.0
# lloc lpopt rc5 dvloc0
4 5 1.3 0.0
# l nproj debl
0 2 1.0
1 2 1.0
2 2 1.0
# icmod fcfact rcfact
3 2.5 1.65
# epsh1 epsh2 depsh
-12.0 12.0 0.02
# rlmax drl
6.0 0.01
 0
]]>
</input-file>
</provenance>
<pseudo-atom-spec atomic-label="Zn" atomic-number="30" z-pseudo="20"
 flavor="Hamann&apos;s oncvpsp" relativity="scalar" spin-dft="no"
 core-corrections="yes">
<annotation pseudo-energy="-206.428602428" />
<exchange-correlation>
<annotation oncvpsp-xc-code="-116133" oncvpsp-xc-type="libxc-interface" />
<libxc-info number-of-functionals="2">
<functional name="Perdew, Burke &amp; Ernzerhof SOL (GGA)" type="exchange"
 id="116" />
<functional name="Perdew, Burke &amp; Ernzerhof SOL (GGA)" type="correlation"
 id="133" />
</libxc-info>
</exchange-correlation>
<valence-configuration total-valence-charge="20">
<shell n="3" l="s" occupation="2" />
<shell n="3" l="p" occupation="6" />
<shell n="3" l="d" occupation="10" />
<shell n="4" l="s" occupation="2" />
</valence-configuration>
</pseudo-atom-spec>
<grid npts="457">
<annotation type="sampled from oncvpsp log grid"
 recipe="r(i:1..N) = r1*exp(a*(i-1)) + r=0; resampled"
 recipe-cont="r1: scale; a: step" scale="0.166666666667E-04"
 step="0.119285708653E-01" delta="0.500000000000E-02" rmax="44.2266713690" />
<grid-data>
  0.000000000000E+00  5.050265833728E-03  1.008750967224E-02  1.513287306711E-02
  2.014900893097E-02  2.527454970839E-02  3.058944708272E-02  3.572056252801E-02
  4.072901687140E-02  4.588904843083E-02  5.108973672188E-02  5.620536399126E-02
  6.183322021382E-02  6.721797924334E-02  7.307167114917E-02  7.849321447608E-02
  8.431700851907E-02  8.949891128336E-02  9.499928023531E-02  1.008376874737E-01
  1.070349079473E-01  1.122658037340E-01  1.177523382768E-01  1.235070048802E-01
  1.295429074081E-01  1.358737901225E-01  1.425140689802E-01  1.477063878056E-01
  1.530878821627E-01  1.586654444216E-01  1.644462180666E-01  1.704376068463E-01
  1.766472842551E-01  1.830832033616E-01  1.897536069942E-01  1.966670382985E-01
  2.038323516784E-01  2.112587241371E-01  2.163593547726E-01  2.215831350343E-01
  2.269330382465E-01  2.324121095219E-01  2.380234674942E-01  2.437703060934E-01
  2.496558963637E-01  2.556835883255E-01  2.618568128821E-01  2.681790837723E-01
  2.746539995709E-01  2.812852457365E-01  2.880765967096E-01  2.950319180606E-01
  3.021551686902E-01  3.094504030831E-01  3.169217736151E-01  3.245735329173E-01
  3.324100362960E-01  3.404357442124E-01  3.486552248206E-01  3.570731565687E-01
  3.656943308609E-01  3.745236547852E-01  3.835661539063E-01  3.928269751262E-01
  4.023113896137E-01  4.120247958045E-01  4.219727224744E-01  4.270363951441E-01
  4.321608318858E-01  4.373467618685E-01  4.425949230109E-01  4.479060620870E-01
  4.532809348321E-01  4.587203060501E-01  4.642249497227E-01  4.697956491193E-01
  4.754331969088E-01  4.811383952717E-01  4.869120560149E-01  4.927550006871E-01
  4.986680606954E-01  5.046520774237E-01  5.107079023528E-01  5.168363971810E-01
  5.230384339472E-01  5.293148951546E-01  5.356666738964E-01  5.420946739832E-01
  5.485998100710E-01  5.551830077918E-01  5.618452038853E-01  5.685873463319E-01
  5.754103944879E-01  5.823153192218E-01  5.893031030524E-01  5.963747402891E-01
  6.035312371725E-01  6.107736120186E-01  6.181028953628E-01  6.255201301072E-01
  6.330263716685E-01  6.406226881285E-01  6.483101603860E-01  6.560898823107E-01
  6.639629608984E-01  6.719305164292E-01  6.799936826263E-01  6.881536068178E-01
  6.964114500997E-01  7.047683875009E-01  7.132256081509E-01  7.217843154487E-01
  7.304457272341E-01  7.392110759609E-01  7.480816088724E-01  7.570585881789E-01
  7.661432912370E-01  7.753370107319E-01  7.846410548606E-01  7.940567475190E-01
  8.035854284892E-01  8.132284536311E-01  8.229871950746E-01  8.328630414155E-01
  8.428573979125E-01  8.529716866875E-01  8.632073469277E-01  8.735658350908E-01
  8.840486251119E-01  8.946572086133E-01  9.053930951166E-01  9.162578122580E-01
  9.272529060051E-01  9.383799408772E-01  9.496405001677E-01  9.610361861697E-01
  9.725686204038E-01  9.842394438486E-01  9.960503171748E-01  1.008002920981E+00
  1.020098956033E+00  1.032340143505E+00  1.044728225227E+00  1.057264963930E+00
  1.069952143497E+00  1.082791569219E+00  1.095785068050E+00  1.108934488866E+00
  1.122241702733E+00  1.135708603165E+00  1.149337106403E+00  1.163129151680E+00
  1.177086701500E+00  1.191211741918E+00  1.205506282821E+00  1.219972358215E+00
  1.234612026514E+00  1.249427370832E+00  1.264420499282E+00  1.279593545273E+00
  1.294948667817E+00  1.310488051830E+00  1.326213908452E+00  1.342128475354E+00
  1.358234017058E+00  1.374532825263E+00  1.391027219166E+00  1.407719545796E+00
  1.424612180345E+00  1.441707526510E+00  1.459008016828E+00  1.476516113030E+00
  1.494234306386E+00  1.512165118063E+00  1.530311099479E+00  1.548674832673E+00
  1.567258930665E+00  1.586066037833E+00  1.605098830287E+00  1.624360016251E+00
  1.643852336446E+00  1.663578564483E+00  1.683541507257E+00  1.703744005344E+00
  1.724188933408E+00  1.744879200609E+00  1.765817751016E+00  1.787007564028E+00
  1.808451654797E+00  1.830153074654E+00  1.852114911550E+00  1.874340290489E+00
  1.896832373975E+00  1.919594362462E+00  1.942629494812E+00  1.965941048750E+00
  1.989532341335E+00  2.013406729431E+00  2.037567610184E+00  2.062018421506E+00
  2.086762642564E+00  2.111803794275E+00  2.137145439806E+00  2.162791185084E+00
  2.188744679305E+00  2.215009615457E+00  2.241589730842E+00  2.268488807612E+00
  2.295710673303E+00  2.323259201383E+00  2.351138311800E+00  2.379351971541E+00
  2.407904195200E+00  2.436799045542E+00  2.466040634089E+00  2.495633121698E+00
  2.525580719158E+00  2.555887687788E+00  2.586558340041E+00  2.617597040122E+00
  2.649008204603E+00  2.680796303059E+00  2.712965858695E+00  2.745521449000E+00
  2.778467706388E+00  2.811809318864E+00  2.845551030691E+00  2.879697643059E+00
  2.914254014776E+00  2.949225062953E+00  2.984615763708E+00  3.020431152873E+00
  3.056676326707E+00  3.093356442628E+00  3.130476719939E+00  3.168042440579E+00
  3.206058949866E+00  3.244531657264E+00  3.283466037151E+00  3.322867629597E+00
  3.362742041152E+00  3.403094945646E+00  3.443932084994E+00  3.485259270014E+00
  3.527082381254E+00  3.569407369829E+00  3.612240258267E+00  3.655587141366E+00
  3.699454187062E+00  3.743847637307E+00  3.788773808955E+00  3.834239094662E+00
  3.880249963798E+00  3.926812963364E+00  3.973934718924E+00  4.021621935551E+00
  4.069881398778E+00  4.118719975563E+00  4.168144615270E+00  4.218162350653E+00
  4.268780298861E+00  4.320005662447E+00  4.371845730397E+00  4.424307879162E+00
  4.477399573712E+00  4.531128368596E+00  4.585501909019E+00  4.640527931927E+00
  4.696214267111E+00  4.752568838316E+00  4.809599664376E+00  4.867314860348E+00
  4.925722638672E+00  4.984831310336E+00  5.044649286061E+00  5.105185077493E+00
  5.166447298423E+00  5.228444666004E+00  5.291186001996E+00  5.354680234020E+00
  5.418936396829E+00  5.483963633590E+00  5.549771197194E+00  5.616368451560E+00
  5.683764872979E+00  5.751970051454E+00  5.820993692072E+00  5.890845616377E+00
  5.961535763773E+00  6.033074192938E+00  6.105471083254E+00  6.178736736253E+00
  6.252881577088E+00  6.327916156013E+00  6.403851149885E+00  6.480697363684E+00
  6.558465732048E+00  6.637167320832E+00  6.716813328682E+00  6.797415088627E+00
  6.878984069690E+00  6.961531878526E+00  7.045070261069E+00  7.129611104201E+00
  7.215166437452E+00  7.301748434701E+00  7.389369415918E+00  7.478041848909E+00
  7.567778351096E+00  7.658591691309E+00  7.750494791605E+00  7.843500729104E+00
  7.937622737853E+00  8.032874210707E+00  8.129268701236E+00  8.226819925651E+00
  8.325541764758E+00  8.425448265935E+00  8.526553645127E+00  8.628872288868E+00
  8.732418756335E+00  8.837207781411E+00  8.943254274788E+00  9.050573326085E+00
  9.159180205998E+00  9.269090368470E+00  9.380319452892E+00  9.492883286326E+00
  9.606797885762E+00  9.722079460391E+00  9.838744413916E+00  9.956809346883E+00
  1.007629105905E+01  1.019720655175E+01  1.031957303038E+01  1.044340790674E+01
  1.056872880162E+01  1.069555354724E+01  1.082390018981E+01  1.095378699208E+01
  1.108523243599E+01  1.121825522522E+01  1.135287428792E+01  1.148910877938E+01
  1.162697808473E+01  1.176650182175E+01  1.190769984361E+01  1.205059224173E+01
  1.219519934863E+01  1.234154174082E+01  1.248964024171E+01  1.263951592461E+01
  1.279119011570E+01  1.294468439709E+01  1.310002060986E+01  1.325722085717E+01
  1.341630750746E+01  1.357730319755E+01  1.374023083592E+01  1.390511360595E+01
  1.407197496922E+01  1.424083866885E+01  1.441172873288E+01  1.458466947768E+01
  1.475968551141E+01  1.493680173754E+01  1.511604335839E+01  1.529743587870E+01
  1.548100510924E+01  1.566677717055E+01  1.585477849660E+01  1.604503583856E+01
  1.623757626862E+01  1.643242718384E+01  1.662961631005E+01  1.682917170577E+01
  1.703112176624E+01  1.723549522743E+01  1.744232117016E+01  1.765162902420E+01
  1.786344857249E+01  1.807780995536E+01  1.829474367483E+01  1.851428059893E+01
  1.873645196611E+01  1.896128938971E+01  1.918882486238E+01  1.941909076073E+01
  1.965211984986E+01  1.988794528806E+01  2.012660063152E+01  2.036811983909E+01
  2.061253727716E+01  2.085988772449E+01  2.111020637718E+01  2.136352885371E+01
  2.161989119995E+01  2.187932989435E+01  2.214188185309E+01  2.240758443532E+01
  2.267647544855E+01  2.294859315393E+01  2.322397627178E+01  2.350266398704E+01
  2.378469595488E+01  2.407011230634E+01  2.435895365402E+01  2.465126109787E+01
  2.494707623104E+01  2.524644114581E+01  2.554939843956E+01  2.585599122084E+01
  2.616626311549E+01  2.648025827287E+01  2.679802137215E+01  2.711959762861E+01
  2.744503280016E+01  2.777437319376E+01  2.810766567208E+01  2.844495766015E+01
  2.878629715207E+01  2.913173271789E+01  2.948131351051E+01  2.983508927264E+01
  3.019311034391E+01  3.055542766803E+01  3.092209280005E+01  3.129315791365E+01
  3.166867580861E+01  3.204869991832E+01  3.243328431734E+01  3.282248372915E+01
  3.321635353390E+01  3.361494977630E+01  3.401832917362E+01  3.442654912370E+01
  3.483966771319E+01  3.525774372574E+01  3.568083665045E+01  3.610900669026E+01
  3.654231477054E+01  3.698082254779E+01  3.742459241836E+01  3.787368752738E+01
  3.832817177771E+01  3.878810983904E+01  3.925356715711E+01  3.972460996300E+01
  4.020130528255E+01  4.068372094594E+01  4.117192559730E+01  4.166598870446E+01
  4.216598056892E+01  4.267197233574E+01  4.318403600377E+01  4.370224443582E+01
  4.422667136905E+01
</grid-data>
</grid>
<valence-charge total-charge="20" is-unscreening-charge="yes"
 rescaled-to-z-pseudo="no">
<radfunc>
<data npts="457">
  2.751640257073E+01  2.752246324912E+01  2.754057798521E+01  2.757079102163E+01
  2.761277973193E+01  2.766795898136E+01  2.773823240403E+01  2.781863012603E+01
  2.790893750123E+01  2.801412787609E+01  2.813253710352E+01  2.826104884843E+01
  2.841609611912E+01  2.857771421988E+01  2.876795317263E+01  2.895749194373E+01
  2.917518546142E+01  2.938097344219E+01  2.961166082254E+01  2.987008817664E+01
  3.015937221380E+01  3.041529490263E+01  3.069502040238E+01  3.100055251797E+01
  3.133401721206E+01  3.169765881913E+01  3.209383269247E+01  3.241378565680E+01
  3.275448362680E+01  3.311701363771E+01  3.350247606724E+01  3.391197587510E+01
  3.434661185645E+01  3.480746360094E+01  3.529557581347E+01  3.581193961553E+01
  3.635747040851E+01  3.693298184349E+01  3.733365505181E+01  3.774812148538E+01
  3.817650510582E+01  3.861888591190E+01  3.907529365216E+01  3.954570096346E+01
  4.003001590488E+01  4.052807385870E+01  4.103962877286E+01  4.156434372405E+01
  4.210178078555E+01  4.265139019171E+01  4.321249879977E+01  4.378429786120E+01
  4.436583012859E+01  4.495597634072E+01  4.555344114872E+01  4.615673856925E+01
  4.676417707864E+01  4.737384449350E+01  4.798359281975E+01  4.859102329345E+01
  4.919347188329E+01  4.978799557603E+01  5.037135982288E+01  5.094002758601E+01
  5.149015048977E+01  5.201756264969E+01  5.251777782226E+01  5.275619718526E+01
  5.298599058886E+01  5.320650846622E+01  5.341708235427E+01  5.361702540426E+01
  5.380563300173E+01  5.398218350341E+01  5.414593909829E+01  5.429614680052E+01
  5.443203958138E+01  5.455283764781E+01  5.465774987458E+01  5.474597539702E+01
  5.481670537102E+01  5.486912490637E+01  5.490241517919E+01  5.491575572843E+01
  5.490832694068E+01  5.487931272688E+01  5.482790339299E+01  5.475329870607E+01
  5.465471115565E+01  5.453136940864E+01  5.438252195476E+01  5.420744093737E+01
  5.400542616276E+01  5.377580927870E+01  5.351795811102E+01  5.323128114409E+01
  5.291523212885E+01  5.256931479911E+01  5.219308767398E+01  5.178616892117E+01
  5.134824125316E+01  5.087905682465E+01  5.037844209686E+01  4.984630263109E+01
  4.928262777047E+01  4.868749516648E+01  4.806107510330E+01  4.740363457091E+01
  4.671554103518E+01  4.599726585150E+01  4.524938726657E+01  4.447259295205E+01
  4.366768201333E+01  4.283556641650E+01  4.197727177777E+01  4.109393746093E+01
  4.018681593127E+01  3.925727131737E+01  3.830677713725E+01  3.733691315015E+01
  3.634936130244E+01  3.534590074322E+01  3.432840189449E+01  3.329881957013E+01
  3.225918514906E+01  3.121159781965E+01  3.015821492518E+01  2.910124145338E+01
  2.804291872713E+01  2.698551236766E+01  2.593129961589E+01  2.488255611185E+01
  2.384154224610E+01  2.281048920985E+01  2.179158488287E+01  2.078695970853E+01
  1.979867271455E+01  1.882869784428E+01  1.787891076825E+01  1.695107634653E+01
  1.604683691174E+01  1.516770153717E+01  1.431503644689E+01  1.349005671290E+01
  1.269381936940E+01  1.192721805618E+01  1.119097928130E+01  1.048566036935E+01
  9.811649134660E+00  9.169165290659E+00  8.558263576642E+00  7.978838553313E+00
  7.430630988455E+00  6.913235725399E+00  6.426110900148E+00  5.968588348922E+00
  5.539885027390E+00  5.139115246439E+00  4.765303517771E+00  4.417397796104E+00
  4.094282903711E+00  3.794793927338E+00  3.517729387132E+00  3.261863991597E+00
  3.025960811242E+00  2.808782835305E+00  2.609104075594E+00  2.425719815926E+00
  2.257454928543E+00  2.103171074676E+00  1.961772794179E+00  1.832212486406E+00
  1.713494321654E+00  1.604677139165E+00  1.504876403703E+00  1.413265305133E+00
  1.329075093208E+00  1.251594743482E+00  1.180170050074E+00  1.114202237664E+00
  1.053146179202E+00  9.965082980891E-01  9.438440365542E-01  8.947544697280E-01
  8.488826366387E-01  8.059115387024E-01  7.655619906213E-01  7.275903841495E-01
  6.917863650099E-01  6.579704334116E-01  6.259914764505E-01  5.957231810253E-01
  5.670563052069E-01  5.398896081234E-01  5.141280996387E-01  4.896839323355E-01
  4.664753440413E-01  4.444263547275E-01  4.234663722178E-01  4.035298280024E-01
  3.845558326509E-01  3.664878501419E-01  3.492733905925E-01  3.328637208053E-01
  3.172135920251E-01  3.022809842686E-01  2.880268665780E-01  2.744149725343E-01
  2.614115903593E-01  2.489853669359E-01  2.371071250774E-01  2.257496933778E-01
  2.148877479982E-01  2.044976657389E-01  1.945573877754E-01  1.850462934469E-01
  1.759450835057E-01  1.672356722576E-01  1.589010880412E-01  1.509253815195E-01
  1.432935412761E-01  1.359914162337E-01  1.290056444326E-01  1.223235877322E-01
  1.159332720195E-01  1.098233325300E-01  1.039829639087E-01  9.840187466160E-02
  9.307024566452E-02  8.797869242025E-02  8.311823077135E-02  7.848024579568E-02
  7.405646362930E-02  6.983892597862E-02  6.581996710007E-02  6.199219304184E-02
  5.834846295692E-02  5.488187231166E-02  5.158573782787E-02  4.845358400435E-02
  4.547913110792E-02  4.265628445685E-02  3.997912493455E-02  3.744190060442E-02
  3.503901933587E-02  3.276504235451E-02  3.061467863654E-02  2.858278007307E-02
  2.666433733494E-02  2.485447637239E-02  2.314845548670E-02  2.154166291295E-02
  2.002961485472E-02  1.860795391219E-02  1.727244784610E-02  1.601898862076E-02
  1.484359166987E-02  1.374239533053E-02  1.271166039223E-02  1.174776970985E-02
  1.084722783268E-02  1.000666060481E-02  9.222814696485E-03  8.492557030346E-03
  7.812874071742E-03  7.180870957368E-03  6.593770442040E-03  6.048911648789E-03
  5.543748612841E-03  5.075848615108E-03  4.642890305569E-03  4.242661621261E-03
  3.873057507435E-03  3.532077453710E-03  3.217822859871E-03  2.928494248085E-03
  2.662388340018E-03  2.417895018438E-03  2.193494193517E-03  1.987752594291E-03
  1.799320505473E-03  1.626928469312E-03  1.469383971324E-03  1.325568127642E-03
  1.194432390428E-03  1.074995286402E-03  9.663392019683E-04  8.676072268885E-04
  7.780000668063E-04  6.967730333890E-04  6.232331192956E-04  5.567361637408E-04
  4.966841130644E-04  4.425223794713E-04  3.937372999920E-04  3.498536967259E-04
  3.104325385767E-04  2.750687039678E-04  2.433888434311E-04  2.150493404829E-04
  1.897343688287E-04  1.671540436582E-04  1.470426645952E-04  1.291570477309E-04
  1.132749440927E-04  9.919354185853E-05  8.672804962101E-05  7.571035801548E-05
  6.598777704972E-05  5.742184650474E-05  4.988721680703E-05  4.327059780333E-05
  3.746977289622E-05  3.239267602135E-05  2.795652896590E-05  2.408703654324E-05
  2.071763715122E-05  1.778880625357E-05  1.524741033639E-05  1.304610890598E-05
  1.114280210989E-05  9.500121614834E-06  8.084962178906E-06  6.868052527140E-06
  5.823560220657E-06  4.928734631294E-06  4.163578103416E-06  3.510547052146E-06
  2.954281824151E-06  2.481363182296E-06  2.080090076682E-06  1.740280547991E-06
  1.453093298259E-06  1.210867212134E-06  1.006977745277E-06  8.357087982589E-07
  6.921386556988E-07  5.720386926055E-07  4.717836361881E-07  3.882722576284E-07
  3.188574520399E-07  2.612847456974E-07  2.136383472510E-07  1.742939337353E-07
  1.418774325539E-07  1.152291270924E-07  9.337247611221E-08  7.548709555278E-08
  6.088540584023E-08  4.899249831070E-08  3.932882099914E-08  3.149532693297E-08
  2.516076734918E-08  2.005084808350E-08  1.593899993790E-08  1.263854330428E-08
  9.996053900617E-09  7.885760356964E-09  6.204825769044E-09  4.869384409434E-09
  3.811221740250E-09  2.975000888942E-09  2.315952005446E-09  1.797952580673E-09
  1.391937029977E-09  1.074582777648E-09  8.272278562314E-10  6.349817840073E-10
  4.859973214076E-10  3.708757387931E-10  2.821825504847E-10  2.140543706873E-10
  1.618807047248E-10  1.220471743808E-10  9.172895205363E-11  6.872510078265E-11
  5.132613536990E-11  3.820847729290E-11  2.835061095574E-11  2.096669429577E-11
  1.545416171683E-11  1.135250673178E-11  8.310967082453E-12  6.063274922447E-12
  4.407994668324E-12  3.193264766072E-12  2.304998254582E-12  1.657790231706E-12
  1.187936207360E-12  8.480906128678E-13  6.031950539782E-13  4.273859183653E-13
  3.016545393285E-13  2.120834555921E-13  1.485219996505E-13  1.035956225498E-13
  7.196775185101E-14  4.979198278300E-14  3.430714963441E-14  2.353922177871E-14
  1.608274086947E-14  1.094123919460E-14  7.411136689261E-15  4.998061347219E-15
  3.355746143510E-15  2.242974136170E-15  1.492394667296E-15  9.884249306144E-16
  6.515988469568E-16  4.275326432481E-16  2.791811274608E-16  1.814286159062E-16
  1.173284462766E-16  7.550108557478E-17  4.834256070367E-17  3.079687194668E-17
  1.951900478279E-17  1.230711129318E-17  7.719247099485E-18  4.816003046498E-18
  2.988572956626E-18  1.844498221165E-18  1.132143605715E-18  6.910428512372E-19
  4.194300633751E-19  2.531254578969E-19  1.518811924294E-19  9.060118997128E-20
  5.372729395468E-20  3.167059081173E-20  1.855608487398E-20  0.000000000000E+00
  0.000000000000E+00  0.000000000000E+00  0.000000000000E+00  0.000000000000E+00
  0.000000000000E+00  0.000000000000E+00  0.000000000000E+00  0.000000000000E+00
  0.000000000000E+00  0.000000000000E+00  0.000000000000E+00  0.000000000000E+00
  0.000000000000E+00  0.000000000000E+00  0.000000000000E+00  0.000000000000E+00
  0.000000000000E+00  0.000000000000E+00  0.000000000000E+00  0.000000000000E+00
  0.000000000000E+00  0.000000000000E+00  0.000000000000E+00  0.000000000000E+00
  0.000000000000E+00
</data>
</radfunc>
</valence-charge>
<pseudocore-charge matching-radius="0.365694330861"
 number-of-continuous-derivatives="4">
<annotation model-charge-form="Teter function with specified parameters" />
<radfunc>
<data npts="290">
  1.313983293439E+02  1.313692500706E+02  1.312823479146E+02  1.311374505338E+02
  1.309361705649E+02  1.306718219085E+02  1.303354280131E+02  1.299509360544E+02
  1.295195179573E+02  1.290176206631E+02  1.284534491214E+02  1.278420969484E+02
  1.271058294873E+02  1.263398909645E+02  1.254403108341E+02  1.245461842217E+02
  1.235218714637E+02  1.225561553358E+02  1.214765596959E+02  1.202708551142E+02
  1.189258200123E+02  1.177399611283E+02  1.164481494033E+02  1.150423151790E+02
  1.135140670999E+02  1.118547472215E+02  1.100555054260E+02  1.086088695489E+02
  1.070747256690E+02  1.054493479961E+02  1.037290963360E+02  1.019104642296E+02
  9.999013417785E+01  9.796504044862E+01  9.583243989372E+01  9.358999110287E+01
  9.123584208002E+01  8.876872643444E+01  8.706090709179E+01  8.530263020286E+01
  8.349409211625E+01  8.163567910133E+01  7.972798381875E+01  7.777182208652E+01
  7.576824979380E+01  7.371857978648E+01  7.162439851897E+01  6.948758223376E+01
  6.731031239680E+01  6.509509008114E+01  6.284474895496E+01  6.056246649397E+01
  5.825177300251E+01  5.591655799414E+01  5.356107345193E+01  5.118993346377E+01
  4.880810970852E+01  4.642092225931E+01  4.403402517133E+01  4.165338633603E+01
  3.928526111506E+01  3.693615931727E+01  3.461280515458E+01  3.232208990925E+01
  3.007101716919E+01  2.786664064078E+01  2.571599473207E+01  2.466299510378E+01
  2.362601831270E+01  2.260590326570E+01  2.160347230037E+01  2.061952833961E+01
  1.965485199338E+01  1.871019862012E+01  1.778629536158E+01  1.688383816597E+01
  1.600348881567E+01  1.514587197681E+01  1.431157228929E+01  1.350113151667E+01
  1.271504577680E+01  1.195376287432E+01  1.121767975757E+01  1.050714012255E+01
  9.822432187459E+00  9.163786661227E+00  8.531374929845E+00  7.925307483857E+00
  7.345632610123E+00  6.792335370128E+00  6.265336886180E+00  5.764493955457E+00
  5.289599010237E+00  4.840380440643E+00  4.416503293868E+00  4.017570361185E+00
  3.643123660966E+00  3.292646322587E+00  2.965564872328E+00  2.661251918473E+00
  2.379029228395E+00  2.118171186015E+00  1.877908613251E+00  1.657432934256E+00
  1.455900656339E+00  1.272438136553E+00  1.106146598103E+00  9.561073560870E-01
  8.213872076585E-01  7.010439376909E-01  5.941318874076E-01  4.997075304420E-01
  4.168349984151E-01  3.445914965157E-01  2.820725488097E-01  2.283970131781E-01
  1.827118069561E-01  1.441962865771E-01  1.120662278394E-01  8.557735784265E-02
  6.402839515035E-02  4.676356130979E-02  3.317453441255E-02  2.270182382358E-02
  1.483555440511E-02  9.115658356738E-03  5.131482991010E-03  2.520833148193E-03
  9.684772819451E-04  2.041562598647E-04  1.433481906528E-07  1.684124126193E-04
  5.574787968778E-04  1.048983381259E-03  1.554094743568E-03  2.009806949038E-03
  2.375211133699E-03  2.627817623148E-03  2.760001815334E-03  2.775641492975E-03
  2.687005734899E-03  2.511946360177E-03  2.271432133980E-03  1.987454130221E-03
  1.681318085128E-03  1.372326738290E-03  1.076842525809E-03  8.077090577537E-04
  5.739990624267E-04  3.810473610635E-04  2.307203368884E-04  1.218685870576E-04
  5.090719558777E-05  1.246841918509E-05  7.448265148914E-08  6.783446146261E-06
  2.576841017598E-05  5.079922290523E-05  7.660580701923E-05  9.911262024681E-05
  1.155439634624E-04  1.244092218415E-04  1.253850907321E-04  1.191179186241E-04
  1.069731501155E-04  9.076029290858E-05  7.246086965416E-05  5.398364163477E-05
  3.696637787394E-05  2.263711098332E-05  1.174079757401E-05  4.530266062996E-06
  8.139571913483E-07  4.783600847460E-08  1.455436143184E-06  4.158560849050E-06
  7.301767582142E-06  1.015623604678E-05  1.219258783830E-05  1.311714655672E-05
  1.287135495810E-05  1.159893038189E-05  9.589231960867E-06  7.207764401404E-06
  4.825489764721E-06  2.757639908283E-06  1.220244671423E-06  3.090567422748E-07
  1.555756545471E-09  0.000000000000E+00  0.000000000000E+00  0.000000000000E+00
  0.000000000000E+00  0.000000000000E+00  0.000000000000E+00  0.000000000000E+00
  0.000000000000E+00  0.000000000000E+00  0.000000000000E+00  0.000000000000E+00
  0.000000000000E+00  0.000000000000E+00  0.000000000000E+00  0.000000000000E+00
  0.000000000000E+00  0.000000000000E+00  0.000000000000E+00  0.000000000000E+00
  0.000000000000E+00  0.000000000000E+00  0.000000000000E+00  0.000000000000E+00
  0.000000000000E+00  0.000000000000E+00  0.000000000000E+00  0.000000000000E+00
  0.000000000000E+00  0.000000000000E+00  0.000000000000E+00  0.000000000000E+00
  0.000000000000E+00  0.000000000000E+00  0.000000000000E+00  0.000000000000E+00
  0.000000000000E+00  0.000000000000E+00  0.000000000000E+00  0.000000000000E+00
  0.000000000000E+00  0.000000000000E+00  0.000000000000E+00  0.000000000000E+00
  0.000000000000E+00  0.000000000000E+00  0.000000000000E+00  0.000000000000E+00
  0.000000000000E+00  0.000000000000E+00  0.000000000000E+00  0.000000000000E+00
  0.000000000000E+00  0.000000000000E+00  0.000000000000E+00  0.000000000000E+00
  0.000000000000E+00  0.000000000000E+00  0.000000000000E+00  0.000000000000E+00
  0.000000000000E+00  0.000000000000E+00  0.000000000000E+00  0.000000000000E+00
  0.000000000000E+00  0.000000000000E+00  0.000000000000E+00  0.000000000000E+00
  0.000000000000E+00  0.000000000000E+00  0.000000000000E+00  0.000000000000E+00
  0.000000000000E+00  0.000000000000E+00  0.000000000000E+00  0.000000000000E+00
  0.000000000000E+00  0.000000000000E+00  0.000000000000E+00  0.000000000000E+00
  0.000000000000E+00  0.000000000000E+00  0.000000000000E+00  0.000000000000E+00
  0.000000000000E+00  0.000000000000E+00  0.000000000000E+00  0.000000000000E+00
  0.000000000000E+00  0.000000000000E+00  0.000000000000E+00  0.000000000000E+00
  0.000000000000E+00  0.000000000000E+00  0.000000000000E+00  0.000000000000E+00
  0.000000000000E+00  0.000000000000E+00  0.000000000000E+00  0.000000000000E+00
  0.000000000000E+00  0.000000000000E+00
</data>
</radfunc>
</pseudocore-charge>
<semilocal-potentials set="scalar_relativistic">
<slps n="3" l="s" rc="1.35823401706" eref="-4.73783577466">
<radfunc>
<data npts="290">
 -3.236622666718E+01 -3.236607754030E+01 -3.236563152381E+01 -3.236488680226E+01
 -3.236385011878E+01 -3.236248474493E+01 -3.236074088450E+01 -3.235873888793E+01
 -3.235648129153E+01 -3.235383975357E+01 -3.235085083284E+01 -3.234758822446E+01
 -3.234362577467E+01 -3.233946455960E+01 -3.233452553575E+01 -3.232956004581E+01
 -3.232380107460E+01 -3.231830118914E+01 -3.231207013199E+01 -3.230500573305E+01
 -3.229699021316E+01 -3.228980221883E+01 -3.228183933414E+01 -3.227301198146E+01
 -3.226321900282E+01 -3.225234593673E+01 -3.224026300488E+01 -3.223031887051E+01
 -3.221954205962E+01 -3.220785576541E+01 -3.219517513439E+01 -3.218140631635E+01
 -3.216644539560E+01 -3.215017718929E+01 -3.213247389771E+01 -3.211319359030E+01
 -3.209217851009E+01 -3.206925317894E+01 -3.205281280955E+01 -3.203537384765E+01
 -3.201686833752E+01 -3.199722325137E+01 -3.197636010664E+01 -3.195419455942E+01
 -3.193063597361E+01 -3.190558696635E+01 -3.187894293028E+01 -3.185059153413E+01
 -3.182041220387E+01 -3.178827558768E+01 -3.175404300926E+01 -3.171756591536E+01
 -3.167868532561E+01 -3.163723129409E+01 -3.159302239524E+01 -3.154586524831E+01
 -3.149555409784E+01 -3.144187046961E+01 -3.138458292351E+01 -3.132344692563E+01
 -3.125820486161E+01 -3.118858621006E+01 -3.111430788954E+01 -3.103507478332E+01
 -3.095058043328E+01 -3.086050787797E+01 -3.076453059198E+01 -3.071422326210E+01
 -3.066231346572E+01 -3.060875812837E+01 -3.055351375181E+01 -3.049653643628E+01
 -3.043778189941E+01 -3.037720549143E+01 -3.031476220655E+01 -3.025040669060E+01
 -3.018409324501E+01 -3.011577582778E+01 -3.004540805200E+01 -2.997294318278E+01
 -2.989833413378E+01 -2.982153346437E+01 -2.974249337894E+01 -2.966116572958E+01
 -2.957750202360E+01 -2.949145343730E+01 -2.940297083725E+01 -2.931200481030E+01
 -2.921850570355E+01 -2.912242367519E+01 -2.902370875729E+01 -2.892231093139E+01
 -2.881818021784E+01 -2.871126677976E+01 -2.860152104251E+01 -2.848889382976E+01
 -2.837333651704E+01 -2.825480120380E+01 -2.813324090486E+01 -2.800860976211E+01
 -2.788086327689E+01 -2.774995856333E+01 -2.761585462232E+01 -2.747851263539E+01
 -2.733789627694E+01 -2.719397204288E+01 -2.704670959274E+01 -2.689608210189E+01
 -2.674206661994E+01 -2.658464443078E+01 -2.642380140963E+01 -2.625952837245E+01
 -2.609182141286E+01 -2.592068222231E+01 -2.574611838966E+01 -2.556814367661E+01
 -2.538677826623E+01 -2.520204898226E+01 -2.501398947728E+01 -2.482264038806E+01
 -2.462804945653E+01 -2.443027161455E+01 -2.422936903021E+01 -2.402541111319E+01
 -2.381847447549E+01 -2.360864284373E+01 -2.339600691846E+01 -2.318066417551E+01
 -2.296271860484E+01 -2.274228038270E+01 -2.251946547419E+01 -2.229439516540E+01
 -2.206719552711E+01 -2.183799681562E+01 -2.160693282120E+01 -2.137414018008E+01
 -2.113975767266E+01 -2.090392553796E+01 -2.066678484289E+01 -2.042847695346E+01
 -2.018914316492E+01 -1.994892455704E+01 -1.970796215041E+01 -1.946639744827E+01
 -1.922437345622E+01 -1.898203627784E+01 -1.873953738747E+01 -1.849703668129E+01
 -1.825470640276E+01 -1.801273602837E+01 -1.777133818289E+01 -1.753075562939E+01
 -1.729126934827E+01 -1.705320768114E+01 -1.681695647189E+01 -1.658297009041E+01