<?xml version="1.0" encoding="UTF-8" ?>
<psml version="1.1" energy_unit="hartree" length_unit="bohr"
 uuid="df24dbf0-1d64-11e8-6529-720673491cb4"
 xmlns="http://esl.cecam.org/PSML/ns/1.1">
<provenance creator="ONCVPSP-3.3.0+psml-3.3.0-73 (scalar-relativistic)"
 date="2018-03-01">
<annotation action="semilocal-pseudopotential-generation"
 action-cont="projectors-generation" />
<input-file name="oncvpsp-input">
<![CDATA[# atsym z nc nv iexc psfile
Li 3 0 2 -116133 upf
# n l f
1 0 2.0
2 0 1.0
# lmax
1
# l rc ep ncon nbas qcut
0 1.2 0.0 4 8 9.8
1 1.0 0.0 4 8 9.2
# lloc lpopt rc5 dvloc0
4 5 0.9 0.0
# l nproj debl
0 2 1.0
1 2 1.0
# icmod fcfact
0 0.25
# epsh1 epsh2 depsh
-12.0 12.0 0.02
# rlmax drl
4.0 0.01
 0
]]>
</input-file>
</provenance>
<pseudo-atom-spec atomic-label="Li" atomic-number="3" z-pseudo="3"
 flavor="Hamann&apos;s oncvpsp" relativity="scalar" spin-dft="no"
 core-corrections="no">
<annotation pseudo-energy="-7.18163316365" />
<exchange-correlation>
<annotation oncvpsp-xc-code="-116133" oncvpsp-xc-type="libxc-interface" />
<libxc-info number-of-functionals="2">
<functional name="Perdew, Burke &amp; Ernzerhof SOL (GGA)" type="exchange"
 id="116" />
<functional name="Perdew, Burke &amp; Ernzerhof SOL (GGA)" type="correlation"
 id="133" />
</libxc-info>
</exchange-correlation>
<valence-configuration total-valence-charge="3">
<shell n="1" l="s" occupation="2" />
<shell n="2" l="s" occupation="1" />
</valence-configuration>
</pseudo-atom-spec>
<grid npts="457">
<annotation type="sampled from oncvpsp log grid"
 recipe="r(i:1..N) = r1*exp(a*(i-1)) + r=0; resampled"
 recipe-cont="r1: scale; a: step" scale="0.166666666667E-03"
 step="0.119285708653E-01" delta="0.500000000000E-02" rmax="44.2430787916" />
<grid-data>
  0.000000000000E+00  5.052139405559E-03  1.009125198494E-02  1.513848713291E-02
  2.015648390690E-02  2.528392618201E-02  3.060079530245E-02  3.573381431355E-02
  4.074412671733E-02  4.590607257001E-02  5.110869023733E-02  5.622621532664E-02
  6.185615939828E-02  6.724291609153E-02  7.309877962804E-02  7.852233426508E-02
  8.434828884711E-02  8.953211401853E-02  9.503452352372E-02  1.008750967224E-01
  1.070746162705E-01  1.123074526400E-01  1.177960226038E-01  1.235528241010E-01
  1.295909658570E-01  1.359241972326E-01  1.425669395327E-01  1.477611846294E-01
  1.531446754392E-01  1.587243068888E-01  1.645072251130E-01  1.705008366068E-01
  1.767128177115E-01  1.831511244461E-01  1.898240026970E-01  1.967399987792E-01
  2.039079703814E-01  2.113370979113E-01  2.164396208033E-01  2.216653390080E-01
  2.270172269530E-01  2.324983308805E-01  2.381117705813E-01  2.438607411702E-01
  2.497485149050E-01  2.557784430489E-01  2.619539577779E-01  2.682785741345E-01
  2.747558920284E-01  2.813895982855E-01  2.881834687465E-01  2.951413704159E-01
  3.022672636632E-01  3.095652044771E-01  3.170393467740E-01  3.246939447625E-01
  3.325333553649E-01  3.405620406968E-01  3.487845706074E-01  3.572056252801E-01
  3.658299978969E-01  3.746625973661E-01  3.837084511169E-01  3.929727079607E-01
  4.024606410217E-01  4.121776507385E-01  4.221292679380E-01  4.271948191532E-01
  4.323211569831E-01  4.375090108669E-01  4.427591189973E-01  4.480722284252E-01
  4.534490951663E-01  4.588904843083E-01  4.643971701200E-01  4.699699361615E-01
  4.756095753954E-01  4.813168903001E-01  4.870926929837E-01  4.929378052995E-01
  4.988530589631E-01  5.048392956707E-01  5.108973672188E-01  5.170281356254E-01
  5.232324732529E-01  5.295112629319E-01  5.358653980871E-01  5.422957828641E-01
  5.488033322585E-01  5.553889722456E-01  5.620536399126E-01  5.687982835915E-01
  5.756238629946E-01  5.825313493505E-01  5.895217255428E-01  5.965959862493E-01
  6.037551380843E-01  6.110001997413E-01  6.183322021382E-01  6.257521885638E-01
  6.332612148266E-01  6.408603494045E-01  6.485506735974E-01  6.563332816805E-01
  6.642092810607E-01  6.721797924334E-01  6.802459499426E-01  6.884089013419E-01
  6.966698081580E-01  7.050298458559E-01  7.134902040062E-01  7.220520864543E-01
  7.307167114917E-01  7.394853120296E-01  7.483591357740E-01  7.573394454033E-01
  7.664275187481E-01  7.756246489731E-01  7.849321447608E-01  7.943513304979E-01
  8.038835464639E-01  8.135301490214E-01  8.232925108097E-01  8.331720209394E-01
  8.431700851907E-01  8.532881262130E-01  8.635275837275E-01  8.738899147323E-01
  8.843765937091E-01  8.949891128336E-01  9.057289821876E-01  9.165977299738E-01
  9.275969027335E-01  9.387280655663E-01  9.499928023531E-01  9.613927159813E-01
  9.729294285731E-01  9.846045817160E-01  9.964198366966E-01  1.008376874737E+00
  1.020477397234E+00  1.032723126001E+00  1.045115803513E+00  1.057657193155E+00
  1.070349079473E+00  1.083193268426E+00  1.096191587647E+00  1.109345886699E+00
  1.122658037340E+00  1.136129933788E+00  1.149763492993E+00  1.163560654909E+00
  1.177523382768E+00  1.191653663361E+00  1.205953507321E+00  1.220424949409E+00
  1.235070048802E+00  1.249890889388E+00  1.264889580060E+00  1.280068255021E+00
  1.295429074081E+00  1.310974222970E+00  1.326705913646E+00  1.342626384610E+00
  1.358737901225E+00  1.375042756040E+00  1.391543269112E+00  1.408241788342E+00
  1.425140689802E+00  1.442242378079E+00  1.459549286616E+00  1.477063878056E+00
  1.494788644592E+00  1.512726108328E+00  1.530878821627E+00  1.549249367487E+00
  1.567840359897E+00  1.586654444216E+00  1.605694297546E+00  1.624962629117E+00
  1.644462180666E+00  1.664195726834E+00  1.684166075556E+00  1.704376068463E+00
  1.724828581284E+00  1.745526524260E+00  1.766472842551E+00  1.787670516662E+00
  1.809122562861E+00  1.830832033616E+00  1.852802018019E+00  1.875035642235E+00
  1.897536069942E+00  1.920306502782E+00  1.943350180815E+00  1.966670382985E+00
  1.990270427581E+00  2.014153672711E+00  2.038323516784E+00  2.062783398985E+00
  2.087536799773E+00  2.112587241371E+00  2.137938288267E+00  2.163593547726E+00
  2.189556670299E+00  2.215831350343E+00  2.242421326547E+00  2.269330382465E+00
  2.296562347055E+00  2.324121095219E+00  2.352010548362E+00  2.380234674942E+00
  2.408797491042E+00  2.437703060934E+00  2.466955497665E+00  2.496558963637E+00
  2.526517671201E+00  2.556835883255E+00  2.587517913855E+00  2.618568128821E+00
  2.649990946367E+00  2.681790837723E+00  2.713972327776E+00  2.746539995709E+00
  2.779498475658E+00  2.812852457365E+00  2.846606686854E+00  2.880765967096E+00
  2.915335158701E+00  2.950319180606E+00  2.985723010773E+00  3.021551686902E+00
  3.057810307145E+00  3.094504030831E+00  3.131638079201E+00  3.169217736151E+00
  3.207248348985E+00  3.245735329173E+00  3.284684153123E+00  3.324100362960E+00
  3.363989567316E+00  3.404357442124E+00  3.445209731429E+00  3.486552248206E+00
  3.528390875185E+00  3.570731565687E+00  3.613580344475E+00  3.656943308609E+00
  3.700826628312E+00  3.745236547852E+00  3.790179386426E+00  3.835661539063E+00
  3.881689477532E+00  3.928269751262E+00  3.975408988278E+00  4.023113896137E+00
  4.071391262890E+00  4.120247958045E+00  4.169690933542E+00  4.219727224744E+00
  4.270363951441E+00  4.321608318858E+00  4.373467618685E+00  4.425949230109E+00
  4.479060620870E+00  4.532809348321E+00  4.587203060501E+00  4.642249497227E+00
  4.697956491193E+00  4.754331969088E+00  4.811383952717E+00  4.869120560149E+00
  4.927550006871E+00  4.986680606954E+00  5.046520774237E+00  5.107079023528E+00
  5.168363971810E+00  5.230384339472E+00  5.293148951546E+00  5.356666738964E+00
  5.420946739832E+00  5.485998100710E+00  5.551830077918E+00  5.618452038853E+00
  5.685873463319E+00  5.754103944879E+00  5.823153192218E+00  5.893031030524E+00
  5.963747402891E+00  6.035312371725E+00  6.107736120186E+00  6.181028953628E+00
  6.255201301072E+00  6.330263716685E+00  6.406226881285E+00  6.483101603860E+00
  6.560898823107E+00  6.639629608984E+00  6.719305164292E+00  6.799936826263E+00
  6.881536068178E+00  6.964114500997E+00  7.047683875009E+00  7.132256081509E+00
  7.217843154487E+00  7.304457272341E+00  7.392110759609E+00  7.480816088724E+00
  7.570585881789E+00  7.661432912370E+00  7.753370107319E+00  7.846410548606E+00
  7.940567475190E+00  8.035854284892E+00  8.132284536311E+00  8.229871950746E+00
  8.328630414155E+00  8.428573979125E+00  8.529716866875E+00  8.632073469277E+00
  8.735658350908E+00  8.840486251119E+00  8.946572086133E+00  9.053930951166E+00
  9.162578122580E+00  9.272529060051E+00  9.383799408772E+00  9.496405001677E+00
  9.610361861697E+00  9.725686204038E+00  9.842394438486E+00  9.960503171748E+00
  1.008002920981E+01  1.020098956033E+01  1.032340143505E+01  1.044728225227E+01
  1.057264963930E+01  1.069952143497E+01  1.082791569219E+01  1.095785068050E+01
  1.108934488866E+01  1.122241702733E+01  1.135708603165E+01  1.149337106403E+01
  1.163129151680E+01  1.177086701500E+01  1.191211741918E+01  1.205506282821E+01
  1.219972358215E+01  1.234612026514E+01  1.249427370832E+01  1.264420499282E+01
  1.279593545273E+01  1.294948667817E+01  1.310488051830E+01  1.326213908452E+01
  1.342128475354E+01  1.358234017058E+01  1.374532825263E+01  1.391027219166E+01
  1.407719545796E+01  1.424612180345E+01  1.441707526510E+01  1.459008016828E+01
  1.476516113030E+01  1.494234306386E+01  1.512165118063E+01  1.530311099479E+01
  1.548674832673E+01  1.567258930665E+01  1.586066037833E+01  1.605098830287E+01
  1.624360016251E+01  1.643852336446E+01  1.663578564483E+01  1.683541507257E+01
  1.703744005344E+01  1.724188933408E+01  1.744879200609E+01  1.765817751016E+01
  1.787007564028E+01  1.808451654797E+01  1.830153074654E+01  1.852114911550E+01
  1.874340290489E+01  1.896832373975E+01  1.919594362462E+01  1.942629494812E+01
  1.965941048750E+01  1.989532341335E+01  2.013406729431E+01  2.037567610184E+01
  2.062018421506E+01  2.086762642564E+01  2.111803794275E+01  2.137145439806E+01
  2.162791185084E+01  2.188744679305E+01  2.215009615457E+01  2.241589730842E+01
  2.268488807612E+01  2.295710673303E+01  2.323259201383E+01  2.351138311800E+01
  2.379351971541E+01  2.407904195200E+01  2.436799045542E+01  2.466040634089E+01
  2.495633121698E+01  2.525580719158E+01  2.555887687788E+01  2.586558340041E+01
  2.617597040122E+01  2.649008204603E+01  2.680796303059E+01  2.712965858695E+01
  2.745521449000E+01  2.778467706388E+01  2.811809318864E+01  2.845551030691E+01
  2.879697643059E+01  2.914254014776E+01  2.949225062953E+01  2.984615763708E+01
  3.020431152873E+01  3.056676326707E+01  3.093356442628E+01  3.130476719939E+01
  3.168042440579E+01  3.206058949866E+01  3.244531657264E+01  3.283466037151E+01
  3.322867629597E+01  3.362742041152E+01  3.403094945646E+01  3.443932084994E+01
  3.485259270014E+01  3.527082381254E+01  3.569407369829E+01  3.612240258267E+01
  3.655587141366E+01  3.699454187062E+01  3.743847637307E+01  3.788773808955E+01
  3.834239094662E+01  3.880249963798E+01  3.926812963364E+01  3.973934718924E+01
  4.021621935551E+01  4.069881398778E+01  4.118719975563E+01  4.168144615270E+01
  4.218162350653E+01  4.268780298861E+01  4.320005662447E+01  4.371845730397E+01
  4.424307879162E+01
</grid-data>
</grid>
<valence-charge total-charge="3" is-unscreening-charge="yes"
 rescaled-to-z-pseudo="no">
<radfunc>
<data npts="457">
  4.331485625170E+01  4.330886181683E+01  4.329094467631E+01  4.326106280512E+01
  4.321953791108E+01  4.316497452836E+01  4.309549581533E+01  4.301602142587E+01
  4.292676897561E+01  4.282283079954E+01  4.270586082662E+01  4.257894610780E+01
  4.242587309716E+01  4.226636690455E+01  4.207868251883E+01  4.189176049272E+01
  4.167715745935E+01  4.147437134470E+01  4.124713792169E+01  4.099268597889E+01
  4.070797721755E+01  4.045620513540E+01  4.018111863284E+01  3.988076537673E+01
  3.955307260214E+01  3.919584914915E+01  3.880679014034E+01  3.849265730539E+01
  3.815821054921E+01  3.780237147631E+01  3.742404039997E+01  3.702210217262E+01
  3.659543323563E+01  3.614291002720E+01  3.566341889005E+01  3.515586762140E+01
  3.461919880418E+01  3.405240504916E+01  3.365733888560E+01  3.324820625713E+01
  3.282476903019E+01  3.238681192681E+01  3.193414569958E+01  3.146661049529E+01
  3.098407940091E+01  3.048646216255E+01  2.997370906396E+01  2.944581494711E+01
  2.890282335227E+01  2.834483074995E+01  2.777199083108E+01  2.718451881550E+01
  2.658269573220E+01  2.596687261739E+01  2.533747456920E+01  2.469500459015E+01
  2.404004714082E+01  2.337327132062E+01  2.269543358466E+01  2.200737989902E+01
  2.131004723133E+01  2.060446426947E+01  1.989175125873E+01  1.917311884734E+01
  1.844986583300E+01  1.772337570791E+01  1.699511190908E+01  1.663079258801E+01
  1.626661169359E+01  1.590277167659E+01  1.553947857535E+01  1.517694169816E+01
  1.481537328211E+01  1.445498812893E+01  1.409600321780E+01  1.373863729585E+01
  1.338311044688E+01  1.302964363914E+01  1.267845825309E+01  1.232977559039E+01
  1.198381636533E+01  1.164080018025E+01  1.130094498674E+01  1.096446653435E+01
  1.063157780901E+01  1.030248846326E+01  9.977404240906E+00  9.656526398465E+00
  9.340051126300E+00  9.028168972244E+00  8.721064270745E+00  8.418914580637E+00
  8.121890134752E+00  7.830153304640E+00  7.543858083714E+00  7.263149592162E+00
  6.988163606929E+00  6.719026120070E+00  6.455852928675E+00  6.198749259461E+00
  5.947809431010E+00  5.703116556432E+00  5.464742289049E+00  5.232746613459E+00
  5.007177684036E+00  4.788071712681E+00  4.575452907260E+00  4.369333461843E+00
  4.169713599480E+00  3.976581667849E+00  3.789914287729E+00  3.609676553814E+00
  3.435822286979E+00  3.268294336703E+00  3.107024931919E+00  2.951936078184E+00
  2.802939998686E+00  2.659939616223E+00  2.522829072998E+00  2.391494284734E+00
  2.265813525405E+00  2.145658038623E+00  2.030892671562E+00  1.921376527193E+00
  1.816963630498E+00  1.717503604329E+00  1.622842350586E+00  1.532822732463E+00
  1.447285253622E+00  1.366068730311E+00  1.289010952637E+00  1.215949331401E+00
  1.146721527181E+00  1.081166058567E+00  1.019122886724E+00  9.604339737316E-01
  9.049438123647E-01  8.524999252153E-01  8.029533312395E-01  7.561589779528E-01
  7.119761376032E-01  6.702687656986E-01  6.309058202723E-01  5.937615402268E-01
  5.587156810247E-01  5.256537059027E-01  4.944669306914E-01  4.650526202640E-01
  4.373140346285E-01  4.111604227685E-01  3.865069625508E-01  3.632746454036E-01
  3.413901050353E-01  3.207853902629E-01  3.013976830290E-01  2.831687754671E-01
  2.660437840712E-01  2.499695185924E-01  2.348944875070E-01  2.207688742391E-01
  2.075445285468E-01  1.951749541012E-01  1.836152940423E-01  1.728223144587E-01
  1.627543859716E-01  1.533714636027E-01  1.446350651208E-01  1.365082480666E-01
  1.289555856628E-01  1.219431418158E-01  1.154384454046E-01  1.094104640226E-01
  1.038295772935E-01  9.866754979290E-02  9.389750348383E-02  8.949388938634E-02
  8.543245794654E-02  8.169022724413E-02  7.824544778993E-02  7.507756226509E-02
  7.216715823957E-02  6.949591185763E-02  6.704652096047E-02  6.480262744814E-02
  6.274873110186E-02  6.087010046468E-02  5.915268988754E-02  5.758307386213E-02
  5.614840842603E-02  5.483642396108E-02  5.363544557502E-02  5.253442989253E-02
  5.152300384539E-02  5.059149299445E-02  4.973093231202E-02  4.893305825683E-02
  4.819028517493E-02  4.749567090537E-02  4.684287646381E-02  4.622612369450E-02
  4.564015353596E-02  4.508018644197E-02  4.454188568309E-02  4.402132372510E-02
  4.351495157877E-02  4.301957086889E-02  4.253230832071E-02  4.205059236507E-02
  4.157213159253E-02  4.109489482456E-02  4.061709260840E-02  4.013715997614E-02
  3.965374033743E-02  3.916567039843E-02  3.867196601793E-02  3.817180892557E-02
  3.766453423808E-02  3.714961871775E-02  3.662666972370E-02  3.609541481180E-02
  3.555569194293E-02  3.500744026263E-02  3.445069141811E-02  3.388556138084E-02
  3.331224274514E-02  3.273099747534E-02  3.214215007545E-02  3.154608115742E-02
  3.094322138527E-02  3.033404577405E-02  2.971906832405E-02  2.909883697157E-02
  2.847392883947E-02  2.784494577131E-02  2.721251013426E-02  2.657726087698E-02
  2.593984982960E-02  2.530093823384E-02  2.466119349212E-02  2.402128612528E-02
  2.338188692939E-02  2.274366432250E-02  2.210728187294E-02  2.147339600134E-02
  2.084265384880E-02  2.021569130424E-02  1.959313118400E-02  1.897558155742E-02
  1.836363421178E-02  1.775786325069E-02  1.715882381945E-02  1.656705095150E-02
  1.598305852951E-02  1.540733835495E-02  1.484035931957E-02  1.428256667235E-02
  1.373438137505E-02  1.319619953978E-02  1.266839194180E-02  1.215130360082E-02
  1.164525342462E-02  1.115053390904E-02  1.066741088910E-02  1.019612333714E-02
  9.736883204791E-03  9.289875307110E-03  8.855257248972E-03  8.433159395294E-03
  8.023684888721E-03  7.626909720051E-03  7.242882858294E-03  6.871626448557E-03
  6.513136086793E-03  6.167381180799E-03  5.834305406595E-03  5.513827268410E-03
  5.205840769020E-03  4.910216194455E-03  4.626801019727E-03  4.355420924158E-03
  4.095880925597E-03  3.847966619741E-03  3.611445516920E-03  3.386068464706E-03
  3.171571142563E-03  2.967675613209E-03  2.774091914270E-03  2.590519673276E-03
  2.416649729013E-03  2.252165742666E-03  2.096745783040E-03  1.950063871287E-03
  1.811791472017E-03  1.681598919272E-03  1.559156767562E-03  1.444137059944E-03
  1.336214506910E-03  1.235067571536E-03  1.140379458024E-03  1.051839002226E-03
  9.691414641782E-04  8.919892238392E-04  8.200923823643E-04  7.531692720749E-04
  6.909468791617E-04  6.331611836534E-04  5.795574216280E-04  5.298902752320E-04
  4.839239960220E-04  4.414324672586E-04  4.021992110114E-04  3.660173457282E-04
  3.326894997788E-04  3.020276863164E-04  2.738531445469E-04  2.479961522048E-04
  2.242958137143E-04  2.025998281762E-04  1.827642409666E-04  1.646531823773E-04
  1.481385963709E-04  1.330999621799E-04  1.194240111456E-04  1.070044408816E-04
  9.574162855710E-05  8.554234483273E-05  7.631946974380E-05  6.799171161986E-05
  6.048332994800E-05  5.372386293396E-05  4.764786038642E-05  4.219462244327E-05
  3.730794457199E-05  3.293586920648E-05  2.903044432637E-05  2.554748923967E-05
  2.244636779260E-05  1.968976919894E-05  1.724349665385E-05  1.507626387116E-05
  1.315949965852E-05  1.146716061940E-05  9.975552045127E-06  8.663157032921E-06
  7.510473837810E-06  6.499861437111E-06  5.615393256344E-06  4.842718975489E-06
  4.168934304720E-06  3.582458589798E-06  3.072920079588E-06  2.631048662140E-06
  2.248575851868E-06  1.918141788867E-06  1.633208992614E-06  1.387982596328E-06
  1.177336775312E-06  9.967470725479E-07  8.422283178289E-07  7.102778324922E-07
  5.978236103739E-07  5.021771666940E-07  4.209907499966E-07  3.522186177905E-07
  2.940820839124E-07  2.450380546107E-07  2.037507806746E-07  1.690665643587E-07
  1.399911721429E-07  1.156697172910E-07  9.536878952677E-08  7.846062273127E-08
  6.440910522130E-08  5.275745073134E-08  4.311736156559E-08  3.515952839733E-08
  2.860532377587E-08  2.321955848211E-08  1.880418139164E-08  1.519281441702E-08
  1.224602437704E-08  9.847243263839E-09  7.899257341480E-09  6.321193814711E-09
  5.045941464693E-09  4.017948676881E-09  3.191348707160E-09  2.528367872687E-09
  1.997977643448E-09  1.574756381326E-09  1.237930758909E-09  9.705707244248E-10
  7.589152963286E-10  5.918095047016E-10  4.602354798706E-10  3.569230529727E-10
  2.760273089517E-10  2.128623482200E-10  1.636820958159E-10  1.255003713351E-10
  9.594362235362E-11  7.313074975368E-11  5.557533473946E-11  4.210633204013E-11
  3.180393777566E-11  2.394788803716E-11  1.797590820582E-11  1.345042479352E-11
  1.003198121251E-11  7.458075252164E-12  5.526366944960E-12  4.081397739130E-12
  3.004121369849E-12  2.203678645620E-12  1.610956945228E-12  1.173564330162E-12
  8.519210436189E-13  6.162305337236E-13  4.441403286769E-13  3.189420646853E-13
  2.281913689678E-13  1.626535059484E-13  1.155008506680E-13  8.170430967629E-14
  5.757355078636E-14  4.041097426202E-14  2.825228752702E-14  1.967276405377E-14
  1.364312438727E-14  9.422755965584E-15  6.480916040259E-15  4.438820925385E-15
  3.027260509555E-15  2.055705040156E-15  1.389883052859E-15  9.355769543843E-16
  6.269625977407E-16  4.182552446070E-16  2.777507882225E-16  1.835944538222E-16
  1.207897512864E-16  7.909381318598E-17  5.154329349635E-17  3.342674351048E-17
  2.157162918936E-17  1.385202322556E-17  8.850319802936E-18  5.625925647963E-18
  3.557883661930E-18  2.238336401945E-18  1.400772530365E-18  8.719487277317E-19
  5.398430795900E-19  0.000000000000E+00  0.000000000000E+00  0.000000000000E+00
  0.000000000000E+00
</data>
</radfunc>
</valence-charge>
<semilocal-potentials set="scalar_relativistic">
<slps n="1" l="s" rc="1.20595350732" eref="-1.88791658273">
<radfunc>
<data npts="256">
 -1.326406345932E+01 -1.326344600962E+01 -1.326159982507E+01 -1.325851934107E+01
 -1.325423562034E+01 -1.324860158042E+01 -1.324141875120E+01 -1.323319058438E+01
 -1.322393478214E+01 -1.321313552755E+01 -1.320095574349E+01 -1.318770847404E+01
 -1.317168624015E+01 -1.315493836468E+01 -1.313516288082E+01 -1.311539291326E+01
 -1.309260219117E+01 -1.307097401364E+01 -1.304663047384E+01 -1.301923394217E+01
 -1.298840562948E+01 -1.296098833400E+01 -1.293086297994E+01 -1.289776580678E+01
 -1.286140808713E+01 -1.282147390586E+01 -1.277761777226E+01 -1.274192600962E+01
 -1.270364439924E+01 -1.266258917903E+01 -1.261856416104E+01 -1.257135999027E+01
 -1.252075337853E+01 -1.246650631739E+01 -1.240836527588E+01 -1.234606039046E+01
 -1.227930465763E+01 -1.220779314219E+01 -1.215731767284E+01 -1.210448443684E+01
 -1.204918886610E+01 -1.199132240007E+01 -1.193077242160E+01 -1.186742220672E+01
 -1.180115089110E+01 -1.173183345678E+01 -1.165934074295E+01 -1.158353948502E+01
 -1.150429238713E+01 -1.142145823356E+01 -1.133489204527E+01 -1.124444528866E+01
 -1.114996614439E+01 -1.105129984476E+01 -1.094828908950E+01 -1.084077455026E+01
 -1.072859547551E+01 -1.061159040833E+01 -1.048959803067E+01 -1.036245814878E+01
 -1.023001283517E+01 -1.009210774381E+01 -9.948593615724E+00 -9.799327992824E+00
 -9.644177158530E+00 -9.483018323537E+00 -9.315742075239E+00 -9.229780053382E+00
 -9.142255108728E+00 -9.053158591988E+00 -8.962483256382E+00 -8.870223369729E+00
 -8.776374831770E+00 -8.680935296818E+00 -8.583904301796E+00 -8.485283399747E+00
 -8.385076298872E+00 -8.283289007135E+00 -8.179929982480E+00 -8.075010288697E+00
 -7.968543756942E+00 -7.860547152948E+00 -7.751040349925E+00 -7.640046507181E+00
 -7.527592254454E+00 -7.413707882009E+00 -7.298427536518E+00 -7.181789422755E+00
 -7.063836011216E+00 -6.944614251705E+00 -6.824175793028E+00 -6.702577208915E+00
 -6.579880230328E+00 -6.456151984338E+00 -6.331465239710E+00 -6.205898659399E+00
 -6.079537060041E+00 -5.952471678492E+00 -5.824800445343E+00 -5.696628265137E+00
 -5.568067302773E+00 -5.439237275229E+00 -5.310265747272E+00 -5.181288429226E+00
 -5.052449474152E+00 -4.923901770865E+00 -4.795807228125E+00 -4.668337044057E+00
 -4.541671953319E+00 -4.416002442835E+00 -4.291528924936E+00 -4.168461854583E+00
 -4.047021774985E+00 -3.927439273363E+00 -3.809954825949E+00 -3.694818508528E+00
 -3.582289546095E+00 -3.472635672464E+00 -3.366132268234E+00 -3.263061243299E+00
 -3.163709628426E+00 -3.068367839405E+00 -2.977327577089E+00 -2.890879327616E+00
 -2.809309429305E+00 -2.732896676604E+00 -2.661908437126E+00 -2.596596265540E+00
 -2.537191008141E+00 -2.483897404400E+00 -2.436888206829E+00 -2.396297858113E+00
 -2.362215784496E+00 -2.334679386730E+00 -2.313666833999E+00 -2.299089791719E+00
 -2.290786240296E+00 -2.288513568117E+00 -2.291942147406E+00 -2.300649625414E+00
 -2.314116185041E+00 -2.331721047874E+00 -2.352740508570E+00 -2.376347802369E+00
 -2.401615117532E+00 -2.427518071812E+00 -2.452942976919E+00 -2.476697217161E+00
 -2.497523067330E+00 -2.514115269302E+00 -2.525142674583E+00 -2.529274281421E+00
 -2.525209368063E+00 -2.511712274701E+00 -2.487662964311E+00 -2.458174787616E+00
 -2.429022304546E+00 -2.400219713000E+00 -2.371758184196E+00 -2.343634219943E+00
 -2.315843746255E+00 -2.288382821691E+00 -2.261247539616E+00 -2.234434041970E+00
 -2.207938517344E+00 -2.181757200823E+00 -2.155886373759E+00 -2.130322363546E+00
 -2.105061543369E+00 -2.080100331846E+00 -2.055435192457E+00 -2.031062632605E+00
 -2.006979202101E+00 -1.983181490804E+00 -1.959666125157E+00 -1.936429763358E+00
 -1.913469089104E+00 -1.890780804175E+00 -1.868361620710E+00 -1.846208254909E+00
 -1.824317424944E+00 -1.802685856714E+00 -1.781310301162E+00 -1.760187565049E+00
 -1.739314552549E+00 -1.718688307848E+00 -1.698306041766E+00 -1.678165124000E+00
 -1.658263032546E+00 -1.638597272195E+00 -1.619165292902E+00 -1.599964441004E+00
 -1.580991958415E+00 -1.562245020423E+00 -1.543720788463E+00 -1.525416456067E+00
 -1.507329277166E+00 -1.489456576576E+00 -1.471795748121E+00 -1.454344246611E+00
 -1.437099578308E+00 -1.420059292419E+00 -1.403220974549E+00 -1.386582242149E+00
 -1.370140741586E+00 -1.353894146386E+00 -1.337840156240E+00 -1.321976496477E+00
 -1.306300917800E+00 -1.290811196136E+00 -1.275505132548E+00 -1.260380553140E+00
 -1.245435308953E+00 -1.230667275832E+00 -1.216074354271E+00 -1.201654469233E+00
 -1.187405569948E+00 -1.173325629699E+00 -1.159412645594E+00 -1.145664638327E+00
 -1.132079651934E+00 -1.118655753549E+00 -1.105391033144E+00 -1.092283603286E+00
 -1.079331598874E+00 -1.066533176892E+00 -1.053886516156E+00 -1.041389817055E+00
 -1.029041301312E+00 -1.016839211724E+00 -1.004781811924E+00 -9.928673861324E-01
 -9.810942389161E-01 -9.694606949477E-01 -9.579650987687E-01 -9.466058145543E-01
 -9.353812258810E-01 -9.242897354965E-01 -9.133297650925E-01 -9.024997550797E-01
 -8.917981643661E-01 -8.812234701368E-01 -8.707741676375E-01 -8.604487699600E-01
 -8.502458078303E-01 -8.401638293993E-01 -8.302014000362E-01 -8.203571021247E-01
 -8.106295348606E-01 -8.010173140533E-01 -7.915190719290E-01 -7.821334569365E-01
 -7.728591335552E-01 -7.636947821065E-01 -7.546390985659E-01 -7.456907943790E-01
</data>
</radfunc>
</slps>
<slps n="2" l="p" rc="1.00837687474" eref="0.608951545918E-08">
<radfunc>
<data npts="256">
 -8.262366402186E+00 -8.263106814520E+00 -8.265315655947E+00 -8.268986750516E+00
 -8.274061839203E+00 -8.280683855854E+00 -8.289039534946E+00 -8.298492377131E+00
 -8.308974984668E+00 -8.321005100399E+00 -8.334315918322E+00 -8.348486463162E+00
 -8.365202275334E+00 -8.382185360593E+00 -8.401602039349E+00 -8.420333521793E+00
 -8.441096262401E+00 -8.459989751546E+00 -8.480327236054E+00 -8.502060837217E+00
 -8.525084555933E+00 -8.544313485393E+00 -8.564117522731E+00 -8.584313183810E+00
 -8.604660883667E+00 -8.624855144738E+00 -8.644513966237E+00 -8.658627713009E+00
 -8.671943690699E+00 -8.684193333445E+00 -8.695071226190E+00 -8.704232675626E+00
 -8.711291629614E+00 -8.715819109430E+00 -8.717342351635E+00 -8.715344890913E+00
 -8.709267850402E+00 -8.698512739887E+00 -8.688432164677E+00 -8.675796492559E+00
 -8.660406286738E+00 -8.642059087073E+00 -8.620551088691E+00 -8.595679102405E+00
 -8.567242811427E+00 -8.535047334491E+00 -8.498906099619E+00 -8.458644025125E+00
 -8.414100994843E+00 -8.365135602731E+00 -8.311629127716E+00 -8.253489682886E+00
 -8.190656463611E+00 -8.123103997161E+00 -8.050846271986E+00 -7.973940598439E+00
 -7.892491025200E+00 -7.806651107951E+00 -7.716625800515E+00 -7.622672215685E+00
 -7.525098985865E+00 -7.424263945563E+00 -7.320569862297E+00 -7.214457964057E+00
 -7.106399054313E+00 -6.996882074787E+00 -6.886400075907E+00 -6.830948376124E+00
 -6.775433689038E+00 -6.719911073468E+00 -6.664432365356E+00 -6.609045504926E+00
 -6.553793853786E+00 -6.498715510160E+00 -6.443842631558E+00 -6.389200775311E+00
 -6.334808268509E+00 -6.280675619938E+00 -6.226804987617E+00 -6.173189716404E+00
 -6.119813960942E+00 -6.066652409747E+00 -6.013670126639E+00 -5.960822525823E+00
 -5.908055496696E+00 -5.855305693938E+00 -5.802501007464E+00 -5.749561225397E+00
 -5.696398901362E+00 -5.642920434895E+00 -5.589027370800E+00 -5.534617919616E+00
 -5.479588697144E+00 -5.423836676037E+00 -5.367261336985E+00 -5.309767000846E+00
 -5.251265316405E+00 -5.191677871217E+00 -5.130938885422E+00 -5.068997940573E+00
 -5.005822687555E+00 -4.941401469907E+00 -4.875745791400E+00 -4.808892550048E+00
 -4.740905954991E+00 -4.671879038545E+00 -4.601934673300E+00 -4.531226004225E+00
 -4.459936208574E+00 -4.388277502619E+00 -4.316489324203E+00 -4.244835634339E+00
 -4.173601299783E+00 -4.103087541926E+00 -4.033606465484E+00 -3.965474713058E+00
 -3.899006328283E+00 -3.834504950090E+00 -3.772255502588E+00 -3.712515587672E+00
 -3.655506828925E+00 -3.601406453613E+00 -3.550339432196E+00 -3.502371519328E+00
 -3.457503554110E+00 -3.415667378017E+00 -3.376723714102E+00 -3.340462318854E+00
 -3.306604667263E+00 -3.274809361428E+00 -3.244680363820E+00 -3.215778049161E+00
 -3.187632946075E+00 -3.159761904612E+00 -3.131686282736E+00 -3.102951599668E+00
 -3.073147963092E+00 -3.041930448440E+00 -3.009038500178E+00 -2.974313346675E+00
 -2.938829886787E+00 -2.903828798174E+00 -2.869275676257E+00 -2.835173087957E+00
 -2.801521364008E+00 -2.768318206272E+00 -2.735558307984E+00 -2.703233019927E+00
 -2.671330106764E+00 -2.639833647333E+00 -2.608724138269E+00 -2.577978902278E+00
 -2.547572299766E+00 -2.517476124244E+00 -2.487671180857E+00 -2.458174787616E+00
 -2.429022304546E+00 -2.400219713000E+00 -2.371758184196E+00 -2.343634219943E+00
 -2.315843746255E+00 -2.288382821691E+00 -2.261247539616E+00 -2.234434041970E+00
 -2.207938517344E+00 -2.181757200823E+00 -2.155886373759E+00 -2.130322363546E+00
 -2.105061543369E+00 -2.080100331846E+00 -2.055435192457E+00 -2.031062632605E+00
 -2.006979202101E+00 -1.983181490804E+00 -1.959666125157E+00 -1.936429763358E+00
 -1.913469089104E+00 -1.890780804175E+00 -1.868361620710E+00 -1.846208254909E+00
 -1.824317424944E+00 -1.802685856714E+00 -1.781310301162E+00 -1.760187565049E+00
 -1.739314552549E+00 -1.718688307848E+00 -1.698306041766E+00 -1.678165124000E+00
 -1.658263032546E+00 -1.638597272195E+00 -1.619165292902E+00 -1.599964441004E+00
 -1.580991958415E+00 -1.562245020423E+00 -1.543720788463E+00 -1.525416456067E+00
 -1.507329277166E+00 -1.489456576576E+00 -1.471795748121E+00 -1.454344246611E+00
 -1.437099578308E+00 -1.420059292419E+00 -1.403220974549E+00 -1.386582242149E+00