<?xml version="1.0" encoding="UTF-8" ?>
<psml version="1.1" energy_unit="hartree" length_unit="bohr"
 uuid="41b723a0-1d5f-11e8-7161-ac72d5ffe075"
 xmlns="http://esl.cecam.org/PSML/ns/1.1">
<provenance creator="ONCVPSP-3.3.0+psml-3.3.0-73 (scalar-relativistic)"
 date="2018-03-01">
<annotation action="semilocal-pseudopotential-generation"
 action-cont="projectors-generation" />
<input-file name="oncvpsp-input">
<![CDATA[# atsym z nc nv iexc psfile
Li 3 0 2 -116133 upf
# n l f
1 0 2.0
2 0 1.0
# lmax
1
# l rc ep ncon nbas qcut
0 1.4 0.0 4 8 8.6
1 1.1 0.0 4 8 9.0
# lloc lpopt rc5 dvloc0
4 5 1.1 0.0
# l nproj debl
0 2 1.0
1 2 1.0
# icmod fcfact
0 0.25
# epsh1 epsh2 depsh
-12.0 12.0 0.02
# rlmax drl
4.0 0.01
 0
]]>
</input-file>
</provenance>
<pseudo-atom-spec atomic-label="Li" atomic-number="3" z-pseudo="3"
 flavor="Hamann&apos;s oncvpsp" relativity="scalar" spin-dft="no"
 core-corrections="no">
<annotation pseudo-energy="-7.08205316438" />
<exchange-correlation>
<annotation oncvpsp-xc-code="-116133" oncvpsp-xc-type="libxc-interface" />
<libxc-info number-of-functionals="2">
<functional name="Perdew, Burke &amp; Ernzerhof SOL (GGA)" type="exchange"
 id="116" />
<functional name="Perdew, Burke &amp; Ernzerhof SOL (GGA)" type="correlation"
 id="133" />
</libxc-info>
</exchange-correlation>
<valence-configuration total-valence-charge="3">
<shell n="1" l="s" occupation="2" />
<shell n="2" l="s" occupation="1" />
</valence-configuration>
</pseudo-atom-spec>
<grid npts="457">
<annotation type="sampled from oncvpsp log grid"
 recipe="r(i:1..N) = r1*exp(a*(i-1)) + r=0; resampled"
 recipe-cont="r1: scale; a: step" scale="0.166666666667E-03"
 step="0.119285708653E-01" delta="0.500000000000E-02" rmax="44.2430787916" />
<grid-data>
  0.000000000000E+00  5.052139405559E-03  1.009125198494E-02  1.513848713291E-02
  2.015648390690E-02  2.528392618201E-02  3.060079530245E-02  3.573381431355E-02
  4.074412671733E-02  4.590607257001E-02  5.110869023733E-02  5.622621532664E-02
  6.185615939828E-02  6.724291609153E-02  7.309877962804E-02  7.852233426508E-02
  8.434828884711E-02  8.953211401853E-02  9.503452352372E-02  1.008750967224E-01
  1.070746162705E-01  1.123074526400E-01  1.177960226038E-01  1.235528241010E-01
  1.295909658570E-01  1.359241972326E-01  1.425669395327E-01  1.477611846294E-01
  1.531446754392E-01  1.587243068888E-01  1.645072251130E-01  1.705008366068E-01
  1.767128177115E-01  1.831511244461E-01  1.898240026970E-01  1.967399987792E-01
  2.039079703814E-01  2.113370979113E-01  2.164396208033E-01  2.216653390080E-01
  2.270172269530E-01  2.324983308805E-01  2.381117705813E-01  2.438607411702E-01
  2.497485149050E-01  2.557784430489E-01  2.619539577779E-01  2.682785741345E-01
  2.747558920284E-01  2.813895982855E-01  2.881834687465E-01  2.951413704159E-01
  3.022672636632E-01  3.095652044771E-01  3.170393467740E-01  3.246939447625E-01
  3.325333553649E-01  3.405620406968E-01  3.487845706074E-01  3.572056252801E-01
  3.658299978969E-01  3.746625973661E-01  3.837084511169E-01  3.929727079607E-01
  4.024606410217E-01  4.121776507385E-01  4.221292679380E-01  4.271948191532E-01
  4.323211569831E-01  4.375090108669E-01  4.427591189973E-01  4.480722284252E-01
  4.534490951663E-01  4.588904843083E-01  4.643971701200E-01  4.699699361615E-01
  4.756095753954E-01  4.813168903001E-01  4.870926929837E-01  4.929378052995E-01
  4.988530589631E-01  5.048392956707E-01  5.108973672188E-01  5.170281356254E-01
  5.232324732529E-01  5.295112629319E-01  5.358653980871E-01  5.422957828641E-01
  5.488033322585E-01  5.553889722456E-01  5.620536399126E-01  5.687982835915E-01
  5.756238629946E-01  5.825313493505E-01  5.895217255428E-01  5.965959862493E-01
  6.037551380843E-01  6.110001997413E-01  6.183322021382E-01  6.257521885638E-01
  6.332612148266E-01  6.408603494045E-01  6.485506735974E-01  6.563332816805E-01
  6.642092810607E-01  6.721797924334E-01  6.802459499426E-01  6.884089013419E-01
  6.966698081580E-01  7.050298458559E-01  7.134902040062E-01  7.220520864543E-01
  7.307167114917E-01  7.394853120296E-01  7.483591357740E-01  7.573394454033E-01
  7.664275187481E-01  7.756246489731E-01  7.849321447608E-01  7.943513304979E-01
  8.038835464639E-01  8.135301490214E-01  8.232925108097E-01  8.331720209394E-01
  8.431700851907E-01  8.532881262130E-01  8.635275837275E-01  8.738899147323E-01
  8.843765937091E-01  8.949891128336E-01  9.057289821876E-01  9.165977299738E-01
  9.275969027335E-01  9.387280655663E-01  9.499928023531E-01  9.613927159813E-01
  9.729294285731E-01  9.846045817160E-01  9.964198366966E-01  1.008376874737E+00
  1.020477397234E+00  1.032723126001E+00  1.045115803513E+00  1.057657193155E+00
  1.070349079473E+00  1.083193268426E+00  1.096191587647E+00  1.109345886699E+00
  1.122658037340E+00  1.136129933788E+00  1.149763492993E+00  1.163560654909E+00
  1.177523382768E+00  1.191653663361E+00  1.205953507321E+00  1.220424949409E+00
  1.235070048802E+00  1.249890889388E+00  1.264889580060E+00  1.280068255021E+00
  1.295429074081E+00  1.310974222970E+00  1.326705913646E+00  1.342626384610E+00
  1.358737901225E+00  1.375042756040E+00  1.391543269112E+00  1.408241788342E+00
  1.425140689802E+00  1.442242378079E+00  1.459549286616E+00  1.477063878056E+00
  1.494788644592E+00  1.512726108328E+00  1.530878821627E+00  1.549249367487E+00
  1.567840359897E+00  1.586654444216E+00  1.605694297546E+00  1.624962629117E+00
  1.644462180666E+00  1.664195726834E+00  1.684166075556E+00  1.704376068463E+00
  1.724828581284E+00  1.745526524260E+00  1.766472842551E+00  1.787670516662E+00
  1.809122562861E+00  1.830832033616E+00  1.852802018019E+00  1.875035642235E+00
  1.897536069942E+00  1.920306502782E+00  1.943350180815E+00  1.966670382985E+00
  1.990270427581E+00  2.014153672711E+00  2.038323516784E+00  2.062783398985E+00
  2.087536799773E+00  2.112587241371E+00  2.137938288267E+00  2.163593547726E+00
  2.189556670299E+00  2.215831350343E+00  2.242421326547E+00  2.269330382465E+00
  2.296562347055E+00  2.324121095219E+00  2.352010548362E+00  2.380234674942E+00
  2.408797491042E+00  2.437703060934E+00  2.466955497665E+00  2.496558963637E+00
  2.526517671201E+00  2.556835883255E+00  2.587517913855E+00  2.618568128821E+00
  2.649990946367E+00  2.681790837723E+00  2.713972327776E+00  2.746539995709E+00
  2.779498475658E+00  2.812852457365E+00  2.846606686854E+00  2.880765967096E+00
  2.915335158701E+00  2.950319180606E+00  2.985723010773E+00  3.021551686902E+00
  3.057810307145E+00  3.094504030831E+00  3.131638079201E+00  3.169217736151E+00
  3.207248348985E+00  3.245735329173E+00  3.284684153123E+00  3.324100362960E+00
  3.363989567316E+00  3.404357442124E+00  3.445209731429E+00  3.486552248206E+00
  3.528390875185E+00  3.570731565687E+00  3.613580344475E+00  3.656943308609E+00
  3.700826628312E+00  3.745236547852E+00  3.790179386426E+00  3.835661539063E+00
  3.881689477532E+00  3.928269751262E+00  3.975408988278E+00  4.023113896137E+00
  4.071391262890E+00  4.120247958045E+00  4.169690933542E+00  4.219727224744E+00
  4.270363951441E+00  4.321608318858E+00  4.373467618685E+00  4.425949230109E+00
  4.479060620870E+00  4.532809348321E+00  4.587203060501E+00  4.642249497227E+00
  4.697956491193E+00  4.754331969088E+00  4.811383952717E+00  4.869120560149E+00
  4.927550006871E+00  4.986680606954E+00  5.046520774237E+00  5.107079023528E+00
  5.168363971810E+00  5.230384339472E+00  5.293148951546E+00  5.356666738964E+00
  5.420946739832E+00  5.485998100710E+00  5.551830077918E+00  5.618452038853E+00
  5.685873463319E+00  5.754103944879E+00  5.823153192218E+00  5.893031030524E+00
  5.963747402891E+00  6.035312371725E+00  6.107736120186E+00  6.181028953628E+00
  6.255201301072E+00  6.330263716685E+00  6.406226881285E+00  6.483101603860E+00
  6.560898823107E+00  6.639629608984E+00  6.719305164292E+00  6.799936826263E+00
  6.881536068178E+00  6.964114500997E+00  7.047683875009E+00  7.132256081509E+00
  7.217843154487E+00  7.304457272341E+00  7.392110759609E+00  7.480816088724E+00
  7.570585881789E+00  7.661432912370E+00  7.753370107319E+00  7.846410548606E+00
  7.940567475190E+00  8.035854284892E+00  8.132284536311E+00  8.229871950746E+00
  8.328630414155E+00  8.428573979125E+00  8.529716866875E+00  8.632073469277E+00
  8.735658350908E+00  8.840486251119E+00  8.946572086133E+00  9.053930951166E+00
  9.162578122580E+00  9.272529060051E+00  9.383799408772E+00  9.496405001677E+00
  9.610361861697E+00  9.725686204038E+00  9.842394438486E+00  9.960503171748E+00
  1.008002920981E+01  1.020098956033E+01  1.032340143505E+01  1.044728225227E+01
  1.057264963930E+01  1.069952143497E+01  1.082791569219E+01  1.095785068050E+01
  1.108934488866E+01  1.122241702733E+01  1.135708603165E+01  1.149337106403E+01
  1.163129151680E+01  1.177086701500E+01  1.191211741918E+01  1.205506282821E+01
  1.219972358215E+01  1.234612026514E+01  1.249427370832E+01  1.264420499282E+01
  1.279593545273E+01  1.294948667817E+01  1.310488051830E+01  1.326213908452E+01
  1.342128475354E+01  1.358234017058E+01  1.374532825263E+01  1.391027219166E+01
  1.407719545796E+01  1.424612180345E+01  1.441707526510E+01  1.459008016828E+01
  1.476516113030E+01  1.494234306386E+01  1.512165118063E+01  1.530311099479E+01
  1.548674832673E+01  1.567258930665E+01  1.586066037833E+01  1.605098830287E+01
  1.624360016251E+01  1.643852336446E+01  1.663578564483E+01  1.683541507257E+01
  1.703744005344E+01  1.724188933408E+01  1.744879200609E+01  1.765817751016E+01
  1.787007564028E+01  1.808451654797E+01  1.830153074654E+01  1.852114911550E+01
  1.874340290489E+01  1.896832373975E+01  1.919594362462E+01  1.942629494812E+01
  1.965941048750E+01  1.989532341335E+01  2.013406729431E+01  2.037567610184E+01
  2.062018421506E+01  2.086762642564E+01  2.111803794275E+01  2.137145439806E+01
  2.162791185084E+01  2.188744679305E+01  2.215009615457E+01  2.241589730842E+01
  2.268488807612E+01  2.295710673303E+01  2.323259201383E+01  2.351138311800E+01
  2.379351971541E+01  2.407904195200E+01  2.436799045542E+01  2.466040634089E+01
  2.495633121698E+01  2.525580719158E+01  2.555887687788E+01  2.586558340041E+01
  2.617597040122E+01  2.649008204603E+01  2.680796303059E+01  2.712965858695E+01
  2.745521449000E+01  2.778467706388E+01  2.811809318864E+01  2.845551030691E+01
  2.879697643059E+01  2.914254014776E+01  2.949225062953E+01  2.984615763708E+01
  3.020431152873E+01  3.056676326707E+01  3.093356442628E+01  3.130476719939E+01
  3.168042440579E+01  3.206058949866E+01  3.244531657264E+01  3.283466037151E+01
  3.322867629597E+01  3.362742041152E+01  3.403094945646E+01  3.443932084994E+01
  3.485259270014E+01  3.527082381254E+01  3.569407369829E+01  3.612240258267E+01
  3.655587141366E+01  3.699454187062E+01  3.743847637307E+01  3.788773808955E+01
  3.834239094662E+01  3.880249963798E+01  3.926812963364E+01  3.973934718924E+01
  4.021621935551E+01  4.069881398778E+01  4.118719975563E+01  4.168144615270E+01
  4.218162350653E+01  4.268780298861E+01  4.320005662447E+01  4.371845730397E+01
  4.424307879162E+01
</grid-data>
</grid>
<valence-charge total-charge="3" is-unscreening-charge="yes"
 rescaled-to-z-pseudo="no">
<radfunc>
<data npts="457">
  3.515322837988E+01  3.514923852595E+01  3.513731243408E+01  3.511742009501E+01
  3.508977235250E+01  3.505343519826E+01  3.500715143061E+01  3.495419029587E+01
  3.489468932604E+01  3.482536614916E+01  3.474731012411E+01  3.466256841319E+01
  3.456029199657E+01  3.445363699682E+01  3.432803506398E+01  3.420282947293E+01
  3.405894144059E+01  3.392283718935E+01  3.377016274965E+01  3.359899618873E+01
  3.340721818501E+01  3.323739717693E+01  3.305160279084E+01  3.284844515936E+01
  3.262643697595E+01  3.238399176444E+01  3.211942342651E+01  3.190540898540E+01
  3.167716021977E+01  3.143386001049E+01  3.117466415082E+01  3.089870376344E+01
  3.060508841561E+01  3.029291002916E+01  2.996124768947E+01  2.960917346366E+01
  2.923575934358E+01  2.884008543234E+01  2.856348967642E+01  2.827633835464E+01
  2.797837798488E+01  2.766936411867E+01  2.734906326298E+01  2.701725495777E+01
  2.667373401291E+01  2.631831290661E+01  2.595082434621E+01  2.557112399020E+01
  2.517909332818E+01  2.477464271306E+01  2.435771453682E+01  2.392828653786E+01
  2.348637522439E+01  2.303203939394E+01  2.256538372468E+01  2.208656240913E+01
  2.159578279541E+01  2.109330899530E+01  2.057946541245E+01  2.005464013718E+01
  1.951928814840E+01  1.897393425585E+01  1.841917570990E+01  1.785568439966E+01
  1.728420855462E+01  1.670557386018E+01  1.612068389363E+01  1.582619678379E+01
  1.553051978507E+01  1.523378745806E+01  1.493613900701E+01  1.463771818777E+01
  1.433867319855E+01  1.403915655286E+01  1.373932493409E+01  1.343933903109E+01
  1.313936335439E+01  1.283956603258E+01  1.254011858845E+01  1.224119569482E+01
  1.194297490962E+01  1.164563639041E+01  1.134936258824E+01  1.105433792095E+01
  1.076074842639E+01  1.046878139579E+01  1.017862498787E+01  9.890467824468E+00
  9.604498568487E+00  9.320905485162E+00  9.039875987874E+00  8.761596169838E+00
  8.486250323190E+00  8.214020447179E+00  7.945085747323E+00  7.679622127576E+00
  7.417801677702E+00  7.159792158229E+00  6.905756485499E+00  6.655852219461E+00
  6.410231057018E+00  6.169038333802E+00  5.932412537395E+00  5.700484835063E+00
  5.473378619129E+00  5.251209073155E+00  5.034082762076E+00  4.822097249446E+00
  4.615340744854E+00  4.413891784524E+00  4.217818947945E+00  4.027180613268E+00
  3.842024753984E+00  3.662388779183E+00  3.488299419432E+00  3.319772660024E+00
  3.156813723021E+00  2.999417099155E+00  2.847566630284E+00  2.701235642680E+00
  2.560387131029E+00  2.424973992556E+00  2.294939310260E+00  2.170216683799E+00
  2.050730606097E+00  1.936396883323E+00  1.827123095467E+00  1.722809094310E+00
  1.623347535262E+00  1.528624439138E+00  1.438519779694E+00  1.352908092475E+00
  1.271659100308E+00  1.194638350665E+00  1.121707860003E+00  1.052726760184E+00
  9.875519421129E-01  9.260386918256E-01  8.680413144539E-01  8.134137416856E-01
  7.620101186479E-01  7.136853664645E-01  6.682957171189E-01  6.256992176723E-01
  5.857562013263E-01  5.483297232889E-01  5.132859598645E-01  4.804945696640E-01
  4.498290162790E-01  4.211668521945E-01  3.943899641044E-01  3.693847801412E-01
  3.460424398246E-01  3.242589277656E-01  3.039351723312E-01  2.849771105744E-01
  2.672957207750E-01  2.508070239088E-01  2.354320552974E-01  2.210968075774E-01
  2.077321459997E-01  1.952736969406E-01  1.836617103986E-01  1.728408971898E-01
  1.627602415641E-01  1.533727900675E-01  1.446354176872E-01  1.365085726563E-01
  1.289558981576E-01  1.219434493182E-01  1.154387475511E-01  1.094107608899E-01
  1.038298689015E-01  9.866783616448E-02  9.389778464015E-02  8.949416534632E-02
  8.543272872755E-02  8.169049286251E-02  7.824570826163E-02  7.507781760626E-02
  7.216740846704E-02  6.949615698944E-02  6.704676101609E-02  6.480286244867E-02
  6.274896106987E-02  6.087032542387E-02  5.915290986217E-02  5.758328887626E-02
  5.614861850277E-02  5.483662912190E-02  5.363564583931E-02  5.253462527738E-02
  5.152319436576E-02  5.059167866352E-02  4.973111314174E-02  4.893323425853E-02
  4.819045636002E-02  4.749583728589E-02  4.684303805304E-02  4.622628050740E-02
  4.564030558958E-02  4.508033375576E-02  4.454202827916E-02  4.402146162843E-02
  4.351508481734E-02  4.301969947379E-02  4.253243232624E-02  4.205071180879E-02
  4.157224651524E-02  4.109500527035E-02  4.061719862466E-02  4.013726161348E-02
  3.965383764967E-02  3.916576344255E-02  3.867205485400E-02  3.817189361668E-02
  3.766461485029E-02  3.714969531995E-02  3.662674238754E-02  3.609548361158E-02
  3.555575695550E-02  3.500750156725E-02  3.445074909634E-02  3.388561551638E-02
  3.331229342375E-02  3.273104478464E-02  3.214219410481E-02  3.154612199779E-02
  3.094325912903E-02  3.033408051487E-02  2.971910015668E-02  2.909886599174E-02
  2.847395514370E-02  2.784496945672E-02  2.721253129844E-02  2.657727961780E-02
  2.593986624507E-02  2.530095242192E-02  2.466120555056E-02  2.402129615147E-02
  2.338189502019E-02  2.274367057408E-02  2.210728638064E-02  2.147339885952E-02
  2.084265515068E-02  2.021569114175E-02  1.959312964769E-02  1.897557873627E-02
  1.836363019313E-02  1.775785812007E-02  1.715881766050E-02  1.656704384584E-02
  1.598305055667E-02  1.540732959223E-02  1.484034984201E-02  1.428255655259E-02
  1.373437068330E-02  1.319618834374E-02  1.266838030659E-02  1.215129158896E-02
  1.164524109596E-02  1.115052132072E-02  1.066739809556E-02  1.019611039007E-02
  9.736870153104E-03  9.289862196977E-03  8.855244123800E-03  8.433146295745E-03
  8.023671852728E-03  7.626896782846E-03  7.242870052442E-03  6.871613803996E-03
  6.513123630884E-03  6.167368938382E-03  5.834293400051E-03  5.513815517730E-03
  5.205829291879E-03  4.910205006279E-03  4.626790133811E-03  4.355410351736E-03
  4.095870675943E-03  3.847956700260E-03  3.611435933252E-03  3.386059220828E-03
  3.171562240891E-03  2.967667054705E-03  2.774083698543E-03  2.590511798690E-03
  2.416642192786E-03  2.252158540974E-03  2.096738911112E-03  1.950057323503E-03
  1.811785242002E-03  1.681592999984E-03  1.559151151377E-03  1.444131738737E-03
  1.336209472133E-03  1.235062814294E-03  1.140374969137E-03  1.051834772301E-03
  9.691374836610E-04  8.919854830749E-04  8.200888716460E-04  7.531659816909E-04
  6.909437994376E-04  6.331583049906E-04  5.795547345382E-04  5.298877703683E-04
  4.839216642057E-04  4.414302995041E-04  4.021971985465E-04  3.660154800123E-04
  3.326877725183E-04  3.020260894771E-04  2.738516703649E-04  2.479947931939E-04
  2.242945626727E-04  2.025986781905E-04  1.827631854144E-04  1.646522149282E-04
  1.481377109858E-04  1.330991531097E-04  1.194232729278E-04  1.070037683366E-04
  9.574101678337E-05  8.554178920074E-05  7.631896588973E-05  6.799125543843E-05
  6.048291758472E-05  5.372349077695E-05  4.764752505787E-05  4.219432079047E-05
  3.730767365823E-05  3.293562630168E-05  2.903022689761E-05  2.554729494171E-05
  2.244619445831E-05  1.968961482987E-05  1.724335941082E-05  1.507614206500E-05
  1.315939174103E-05  1.146706517450E-05  9.975467780235E-06  8.663082770629E-06
  7.510408507840E-06  6.499804068587E-06  5.615342970397E-06  4.842674978198E-06
  4.168895880404E-06  3.582425094661E-06  3.072890935720E-06  2.631023351869E-06
  2.248553912461E-06  1.918122807581E-06  1.633192602077E-06  1.387968470255E-06
  1.177324624526E-06  9.967366413122E-07  8.422193804693E-07  7.102701902933E-07
  5.978170887391E-07  5.021716125527E-07  4.209860294444E-07  3.522146139469E-07
  2.940786949819E-07  2.450351921327E-07  2.037483679480E-07  1.690645350277E-07
  1.399894689308E-07  1.156682908703E-07  9.536759751255E-08  7.845962878736E-08
  6.440827826901E-08  5.275676425037E-08  4.311679297826E-08  3.515905852761E-08
  2.860493637541E-08  2.321923981607E-08  1.880391987770E-08  1.519260031168E-08
  1.224584950362E-08  9.847100777385E-09  7.899141526041E-09  6.321099909029E-09
  5.045865512719E-09  4.017887399941E-09  3.191299394923E-09  2.528328290424E-09
  1.997945953375E-09  1.574731076068E-09  1.237910605374E-09  9.705547165964E-10
  7.589026156664E-10  5.917994870214E-10  4.602275877217E-10  3.569168526653E-10
  2.760224515081E-10  2.128585536249E-10  1.636791400329E-10  1.254980756348E-10
  9.594184456855E-11  7.312937713338E-11  5.557427813093E-11  4.210552116204E-11
  3.180331739281E-11  2.394741487332E-11  1.797554846028E-11  1.345015214966E-11
  1.003177524602E-11  7.457920162867E-12  5.526250549735E-12  4.081310674853E-12
  3.004056464646E-12  2.203630424569E-12  1.610921243092E-12  1.173537989020E-12
  8.519016776120E-13  6.162163466539E-13  4.441299731018E-13  3.189345334508E-13
  2.281859120194E-13  1.626495667643E-13  1.154980178656E-13  8.170228031022E-14
  5.757210261844E-14  4.040994489109E-14  2.825155874252E-14  1.967225015197E-14
  1.364276348119E-14  9.422503547582E-15  6.480740232813E-15  4.438698991755E-15
  3.027176300800E-15  2.055647135106E-15  1.389843408742E-15  9.355499321305E-16
  6.269442610060E-16  4.182428578711E-16  2.777424590330E-16  1.835888789381E-16
  1.207860373698E-16  7.909135073651E-17  5.154166863337E-17  3.342567653247E-17
  2.157093198795E-17  1.385156991110E-17  8.850026542448E-18  5.625736894895E-18
  3.557762798623E-18  2.238259413051E-18  1.400723747458E-18  8.719179819359E-19
  5.398238063612E-19  0.000000000000E+00  0.000000000000E+00  0.000000000000E+00
  0.000000000000E+00
</data>
</radfunc>
</valence-charge>
<semilocal-potentials set="scalar_relativistic">
<slps n="1" l="s" rc="1.40824178834" eref="-1.88791658273">
<radfunc>
<data npts="256">
 -1.166599186757E+01 -1.166558309647E+01 -1.166436075490E+01 -1.166232117108E+01
 -1.165948489902E+01 -1.165575452897E+01 -1.165099861316E+01 -1.164555045795E+01
 -1.163942174883E+01 -1.163227088965E+01 -1.162420570121E+01 -1.161543342260E+01
 -1.160482327818E+01 -1.159373227432E+01 -1.158063587985E+01 -1.156754272740E+01
 -1.155244853284E+01 -1.153812385455E+01 -1.152200028804E+01 -1.150385408627E+01
 -1.148343422118E+01 -1.146527323607E+01 -1.144531797857E+01 -1.142339364562E+01
 -1.139930888402E+01 -1.137285431391E+01 -1.134380093737E+01 -1.132015570314E+01
 -1.129479423483E+01 -1.126759467066E+01 -1.123842687038E+01 -1.120715190371E+01
 -1.117362151435E+01 -1.113767755935E+01 -1.109915142446E+01 -1.105786341572E+01
 -1.101362212886E+01 -1.096622379797E+01 -1.093276449397E+01 -1.089773839329E+01
 -1.086107510177E+01 -1.082270133338E+01 -1.078254081836E+01 -1.074051421189E+01
 -1.069653900377E+01 -1.065052942992E+01 -1.060239638657E+01 -1.055204734806E+01
 -1.049938628967E+01 -1.044431361659E+01 -1.038672610102E+01 -1.032651682901E+01
 -1.026357515955E+01 -1.019778669834E+01 -1.012903328936E+01 -1.005719302771E+01
 -9.982140297798E+00 -9.903745841476E+00 -9.821876861562E+00 -9.736397166846E+00
 -9.647167365633E+00 -9.554045115877E+00 -9.456885441047E+00 -9.355541122127E+00
 -9.249863177535E+00 -9.139701444224E+00 -9.024905274909E+00 -8.965722268313E+00
 -8.905324368098E+00 -8.843693001562E+00 -8.780809749519E+00 -8.716656386719E+00
 -8.651214925476E+00 -8.584467662726E+00 -8.516397230699E+00 -8.446986651420E+00
 -8.376219395269E+00 -8.304079443803E+00 -8.230551357094E+00 -8.155620345799E+00
 -8.079272348211E+00 -8.001494112536E+00 -7.922273284636E+00 -7.841598501488E+00
 -7.759459490614E+00 -7.675847175710E+00 -7.590753788753E+00 -7.504172988793E+00
 -7.416099987704E+00 -7.326531683123E+00 -7.235466798809E+00 -7.142906032688E+00
 -7.048852212810E+00 -6.953310461482E+00 -6.856288367844E+00 -6.757796169192E+00
 -6.657846941352E+00 -6.556456798477E+00 -6.453645102691E+00 -6.349434684052E+00
 -6.243852071402E+00 -6.136927734754E+00 -6.028696339981E+00 -5.919197016667E+00
 -5.808473640092E+00 -5.696575128432E+00 -5.583555756321E+00 -5.469475485977E+00
 -5.354400317058E+00 -5.238402656345E+00 -5.121561708129E+00 -5.003963885843E+00
 -4.885703245007E+00 -4.766881936832E+00 -4.647610680956E+00 -4.528009254594E+00
 -4.408206994042E+00 -4.288343302749E+00 -4.168568158311E+00 -4.049042608553E+00
 -3.929939244525E+00 -3.811442635718E+00 -3.693749710199E+00 -3.577070059697E+00
 -3.461626147089E+00 -3.347653391257E+00 -3.235400102005E+00 -3.125127235825E+00
 -3.017107941668E+00 -2.911626864851E+00 -2.808979176648E+00 -2.709469297233E+00
 -2.613409280449E+00 -2.521116830456E+00 -2.432912922790E+00 -2.349119005770E+00
 -2.270053762650E+00 -2.196029420501E+00 -2.127347598635E+00 -2.064294697457E+00
 -2.007136838179E+00 -1.956114374661E+00 -1.911436010961E+00 -1.873272571791E+00
 -1.841750487888E+00 -1.816945074098E+00 -1.798873694475E+00 -1.787488925437E+00
 -1.782671844621E+00 -1.784225589006E+00 -1.791869340499E+00 -1.805232910147E+00
 -1.823852103015E+00 -1.847165054361E+00 -1.874509734146E+00 -1.905122821547E+00
 -1.938140155061E+00 -1.972598968327E+00 -2.007442129024E+00 -2.041524610665E+00
 -2.073622447757E+00 -2.102444456864E+00 -2.126647052962E+00 -2.144852555097E+00
 -2.155671507188E+00 -2.157728973249E+00 -2.149696335419E+00 -2.130339953284E+00
 -2.105065580448E+00 -2.080100252676E+00 -2.055435580301E+00 -2.031062996239E+00
 -2.006979593719E+00 -1.983181904395E+00 -1.959666560352E+00 -1.936430217067E+00
 -1.913469555450E+00 -1.890781273786E+00 -1.868362080250E+00 -1.846208687069E+00
 -1.824317809187E+00 -1.802686171066E+00 -1.781310525166E+00 -1.760187683669E+00
 -1.739314560294E+00 -1.718688211874E+00 -1.698305862556E+00 -1.678164892752E+00
 -1.658262785580E+00 -1.638597044051E+00 -1.619165110383E+00 -1.599964319922E+00
 -1.580991903496E+00 -1.562245027574E+00 -1.543720848080E+00 -1.525416556205E+00
 -1.507329405915E+00 -1.489456723483E+00 -1.471795904805E+00 -1.454344406825E+00
 -1.437099737707E+00 -1.420059448196E+00 -1.403221125064E+00 -1.386582386599E+00
 -1.370140879741E+00 -1.353894278389E+00 -1.337840282458E+00 -1.321976617405E+00
 -1.306301033989E+00 -1.290811308152E+00 -1.275505240943E+00 -1.260380658438E+00
 -1.245435411639E+00 -1.230667376352E+00 -1.216074453026E+00 -1.201654566584E+00
 -1.187405666215E+00 -1.173325725165E+00 -1.159412740506E+00 -1.145664732900E+00
 -1.132079746355E+00 -1.118655847975E+00 -1.105391127709E+00 -1.092283698101E+00
 -1.079331694031E+00 -1.066533272466E+00 -1.053886612205E+00 -1.041389913625E+00
 -1.029041398436E+00 -1.016839309428E+00 -1.004781910223E+00 -9.928674850376E-01
 -9.810943384324E-01 -9.694607950770E-01 -9.579651995107E-01 -9.466059159079E-01
 -9.353813278452E-01 -9.242898380713E-01 -9.133298682802E-01 -9.024998588856E-01
 -8.917982687991E-01 -8.812235752102E-01 -8.707742733698E-01 -8.604488763752E-01
 -8.502459149583E-01 -8.401639372766E-01 -8.302015087059E-01 -8.203572116366E-01
 -8.106296452714E-01 -8.010174254263E-01 -7.915191843340E-01 -7.821335704490E-01
 -7.728592482563E-01 -7.636948980814E-01 -7.546392159030E-01 -7.456909131685E-01
</data>
</radfunc>
</slps>
<slps n="2" l="p" rc="1.10934588670" eref="0.170360687235E-08">
<radfunc>
<data npts="256">
 -8.538771043290E+00 -8.538780305005E+00 -8.538806534667E+00 -8.538846432005E+00
 -8.538893956128E+00 -8.538942407493E+00 -8.538981099005E+00 -8.538993756816E+00
 -8.538967770026E+00 -8.538883898016E+00 -8.538720516933E+00 -8.538460591620E+00
 -8.538032633384E+00 -8.537453518954E+00 -8.536598027914E+00 -8.535558931925E+00
 -8.534135705152E+00 -8.532564644169E+00 -8.530542999329E+00 -8.527951545438E+00
 -8.524641524892E+00 -8.521353243033E+00 -8.517372864736E+00 -8.512564619441E+00
 -8.506768203823E+00 -8.499794936337E+00 -8.491423494675E+00 -8.484073325693E+00
 -8.475667592409E+00 -8.466067185755E+00 -8.455117096469E+00 -8.442645137553E+00
 -8.428460696207E+00 -8.412353557519E+00 -8.394092853220E+00 -8.373426201230E+00
 -8.350079115808E+00 -8.323754783296E+00 -8.304394613326E+00 -8.283470151312E+00
 -8.260877602361E+00 -8.236509423413E+00 -8.210254672988E+00 -8.181999454844E+00
 -8.151627465551E+00 -8.119020655844E+00 -8.084060015235E+00 -8.046626488578E+00
 -8.006602032042E+00 -7.963870814155E+00 -7.918320565155E+00 -7.869844074674E+00
 -7.818340833753E+00 -7.763718812166E+00 -7.705896356006E+00 -7.644804183308E+00
 -7.580387447213E+00 -7.512607826771E+00 -7.441445595007E+00 -7.366901602642E+00
 -7.288999103994E+00 -7.207785339660E+00 -7.123332779197E+00 -7.035739916960E+00
 -6.945131506630E+00 -6.851658116071E+00 -6.755494885511E+00 -6.706465522288E+00
 -6.656839380476E+00 -6.606644144139E+00 -6.555908448301E+00 -6.504661722179E+00
 -6.452934015503E+00 -6.400755808277E+00 -6.348157804638E+00 -6.295170711787E+00
 -6.241825005274E+00 -6.188150682341E+00 -6.134177005384E+00 -6.079932238050E+00
 -6.025443376927E+00 -5.970735882244E+00 -5.915833411486E+00 -5.860757560291E+00
 -5.805527615485E+00 -5.750160325555E+00 -5.694669694268E+00 -5.639066803557E+00
 -5.583359672068E+00 -5.527553156027E+00 -5.471648899213E+00 -5.415645338849E+00
 -5.359537774092E+00 -5.303318503539E+00 -5.246977037682E+00 -5.190500391608E+00
 -5.133873462299E+00 -5.077079493798E+00 -5.020100632082E+00 -4.962918569819E+00
 -4.905515279242E+00 -4.847873829143E+00 -4.789979279489E+00 -4.731819644393E+00
 -4.673386911178E+00 -4.614678100078E+00 -4.555696345762E+00 -4.496451978433E+00
 -4.436963578826E+00 -4.377258978074E+00 -4.317376170263E+00 -4.257364102731E+00
 -4.197283306863E+00 -4.137206330535E+00 -4.077217932625E+00 -4.017415000377E+00
 -3.957906152034E+00 -3.898810990331E+00 -3.840258977343E+00 -3.782387907973E+00
 -3.725341968231E+00 -3.669269375460E+00 -3.614319610860E+00 -3.560640269881E+00
 -3.508373573210E+00 -3.457652599704E+00 -3.408597322326E+00 -3.361310548189E+00
 -3.315873883428E+00 -3.272343861821E+00 -3.230748391732E+00 -3.191083687925E+00
 -3.153311861760E+00 -3.117359344073E+00 -3.083116308445E+00 -3.050437247640E+00
 -3.019142831901E+00 -2.989023144157E+00 -2.959842343967E+00 -2.931344759525E+00
 -2.903262346404E+00 -2.875323384280E+00 -2.847262210818E+00 -2.818829718063E+00
 -2.789804264180E+00 -2.760002586308E+00 -2.729290242882E+00 -2.697591070791E+00
 -2.665568989380E+00 -2.633989953381E+00 -2.602830783709E+00 -2.572093595113E+00
 -2.541778214453E+00 -2.511882049652E+00 -2.482399991536E+00 -2.453324352380E+00
 -2.424644846331E+00 -2.396348618984E+00 -2.368420336525E+00 -2.340842349594E+00
 -2.313594954111E+00 -2.286656781601E+00 -2.260005366213E+00 -2.233617956013E+00
 -2.207472711078E+00 -2.181549795758E+00 -2.155833365075E+00 -2.130325198011E+00
 -2.105065580448E+00 -2.080100252676E+00 -2.055435580301E+00 -2.031062996239E+00
 -2.006979593719E+00 -1.983181904395E+00 -1.959666560352E+00 -1.936430217067E+00
 -1.913469555450E+00 -1.890781273786E+00 -1.868362080250E+00 -1.846208687069E+00
 -1.824317809187E+00 -1.802686171066E+00 -1.781310525166E+00 -1.760187683669E+00
 -1.739314560294E+00 -1.718688211874E+00 -1.698305862556E+00 -1.678164892752E+00
 -1.658262785580E+00 -1.638597044051E+00 -1.619165110383E+00 -1.599964319922E+00
 -1.580991903496E+00 -1.562245027574E+00 -1.543720848080E+00 -1.525416556205E+00
 -1.507329405915E+00 -1.489456723483E+00 -1.471795904805E+00 -1.454344406825E+00
 -1.437099737707E+00 -1.420059448196E+00 -1.403221125064E+00 -1.386582386599E+00