<?xml version="1.0" encoding="UTF-8" ?>
<psml version="1.1" energy_unit="hartree" length_unit="bohr"
 uuid="38487a20-1d60-11e8-7e4d-1e42f9415580"
 xmlns="http://esl.cecam.org/PSML/ns/1.1">
<provenance creator="ONCVPSP-3.3.0+psml-3.3.0-73 (scalar-relativistic)"
 date="2018-03-01">
<annotation action="semilocal-pseudopotential-generation"
 action-cont="projectors-generation" />
<input-file name="oncvpsp-input">
<![CDATA[# atsym z nc nv iexc psfile
Rh 45 6 4 -116133 upf
# n l f
1 0 2.0
2 0 2.0
2 1 6.0
3 0 2.0
3 1 6.0
3 2 10.0
4 0 2.0
4 1 6.0
4 2 8.0
5 0 1.0
# lmax
2
# l rc ep ncon nbas qcut
0 1.4 0.0 4 7 9.4
1 1.4 0.0 4 7 9.4
2 1.35 0.0 4 7 9.4
# lloc lpopt rc5 dvloc0
4 5 1.3 0.0
# l nproj debl
0 2 1.0
1 2 1.0
2 2 1.0
# icmod fcfact rcfact
3 7.0 1.23
# epsh1 epsh2 depsh
-12.0 12.0 0.02
# rlmax drl
6.0 0.01
 0
]]>
</input-file>
</provenance>
<pseudo-atom-spec atomic-label="Rh" atomic-number="45" z-pseudo="17"
 flavor="Hamann&apos;s oncvpsp" relativity="scalar" spin-dft="no"
 core-corrections="yes">
<annotation pseudo-energy="-110.649248253" />
<exchange-correlation>
<annotation oncvpsp-xc-code="-116133" oncvpsp-xc-type="libxc-interface" />
<libxc-info number-of-functionals="2">
<functional name="Perdew, Burke &amp; Ernzerhof SOL (GGA)" type="exchange"
 id="116" />
<functional name="Perdew, Burke &amp; Ernzerhof SOL (GGA)" type="correlation"
 id="133" />
</libxc-info>
</exchange-correlation>
<valence-configuration total-valence-charge="17">
<shell n="4" l="s" occupation="2" />
<shell n="4" l="p" occupation="6" />
<shell n="4" l="d" occupation="8" />
<shell n="5" l="s" occupation="1" />
</valence-configuration>
</pseudo-atom-spec>
<grid npts="457">
<annotation type="sampled from oncvpsp log grid"
 recipe="r(i:1..N) = r1*exp(a*(i-1)) + r=0; resampled"
 recipe-cont="r1: scale; a: step" scale="0.111111111111E-04"
 step="0.119285708653E-01" delta="0.500000000000E-02" rmax="44.2313729721" />
<grid-data>
  0.000000000000E+00  5.050802712143E-03  1.008858204474E-02  1.513448179686E-02
  2.015115091088E-02  2.527723656897E-02  3.059269895389E-02  3.572435987247E-02
  4.073334664942E-02  4.589392675613E-02  5.109516791654E-02  5.621133901271E-02
  6.183979351557E-02  6.722512498246E-02  7.307943917649E-02  7.850155885119E-02
  8.432597200403E-02  8.950842564066E-02  9.500937932012E-02  1.008484072218E-01
  1.070462865031E-01  1.122777383704E-01  1.177648561701E-01  1.235201345346E-01
  1.295566787210E-01  1.358882344523E-01  1.425292192178E-01  1.477220900228E-01
  1.531041564703E-01  1.586823116628E-01  1.644636998444E-01  1.704557255504E-01
  1.766660630911E-01  1.831026663806E-01  1.897737791236E-01  1.966879453737E-01
  2.038540204763E-01  2.112811824101E-01  2.163823552782E-01  2.216066908640E-01
  2.269571628082E-01  2.324368165471E-01  2.380487710458E-01  2.437962205739E-01
  2.496824365235E-01  2.557107692709E-01  2.618846500842E-01  2.682075930758E-01
  2.746831972030E-01  2.813151483163E-01  2.881072212572E-01  2.950632820073E-01
  3.021872898880E-01  3.094832998151E-01  3.169554646058E-01  3.246080373433E-01
  3.324453737969E-01  3.404719349019E-01  3.486922892981E-01  3.571111159309E-01
  3.657332067140E-01  3.745634692569E-01  3.836069296586E-01  3.928687353683E-01
  4.023541581150E-01  4.120685969086E-01  4.220175811123E-01  4.270817920857E-01
  4.322067735907E-01  4.373932548738E-01  4.426419739323E-01  4.479536776194E-01
  4.533291217509E-01  4.587690712119E-01  4.642743000664E-01  4.698455916672E-01
  4.754837387672E-01  4.811895436324E-01  4.869638181560E-01  4.928073839739E-01
  4.987210725816E-01  5.047057254526E-01  5.107621941580E-01  5.168913404879E-01
  5.230940365738E-01  5.293711650126E-01  5.357236189928E-01  5.421523024207E-01
  5.486581300498E-01  5.552420276104E-01  5.619049319417E-01  5.686477911250E-01
  5.754715646185E-01  5.823772233939E-01  5.893657500746E-01  5.964381390755E-01
  6.035953967444E-01  6.108385415054E-01  6.181686040034E-01  6.255866272515E-01
  6.330936667785E-01  6.406907907798E-01  6.483790802692E-01  6.561596292324E-01
  6.640335447832E-01  6.720019473206E-01  6.800659706884E-01  6.882267623367E-01
  6.964854834847E-01  7.048433092866E-01  7.133014289980E-01  7.218610461460E-01
  7.305233786997E-01  7.392896592441E-01  7.481611351551E-01  7.571390687769E-01
  7.662247376022E-01  7.754194344535E-01  7.847244676669E-01  7.941411612789E-01
  8.036708552143E-01  8.133149054768E-01  8.230746843426E-01  8.329515805547E-01
  8.429469995213E-01  8.530623635156E-01  8.632991118778E-01  8.736587012203E-01
  8.841426056349E-01  8.947523169026E-01  9.054893447054E-01  9.163552168419E-01
  9.273514794440E-01  9.384796971973E-01  9.497414535637E-01  9.611383510064E-01
  9.726720112185E-01  9.843440753531E-01  9.961562042574E-01  1.008110078708E+00
  1.020207399653E+00  1.032449888449E+00  1.044839287110E+00  1.057377358555E+00
  1.070065886858E+00  1.082906677500E+00  1.095901557630E+00  1.109052376322E+00
  1.122361004838E+00  1.135829336896E+00  1.149459288939E+00  1.163252800406E+00
  1.177211834011E+00  1.191338376019E+00  1.205634436531E+00  1.220102049770E+00
  1.234743274367E+00  1.249560193659E+00  1.264554915983E+00  1.279729574975E+00
  1.295086329875E+00  1.310627365833E+00  1.326354894223E+00  1.342271152954E+00
  1.358378406789E+00  1.374678947671E+00  1.391175095043E+00  1.407869196183E+00
  1.424763626537E+00  1.441860790056E+00  1.459163119537E+00  1.476673076971E+00
  1.494393153895E+00  1.512325871741E+00  1.530473782202E+00  1.548839467589E+00
  1.567425541200E+00  1.586234647694E+00  1.605269463467E+00  1.624532697028E+00
  1.644027089392E+00  1.663755414465E+00  1.683720479439E+00  1.703925125192E+00
  1.724372226694E+00  1.745064693415E+00  1.766005469736E+00  1.787197535372E+00
  1.808643905797E+00  1.830347632666E+00  1.852311804258E+00  1.874539545910E+00
  1.897034020460E+00  1.919798428706E+00  1.942836009850E+00  1.966150041969E+00
  1.989743842472E+00  2.013620768582E+00  2.037784217805E+00  2.062237628419E+00
  2.086984479960E+00  2.112028293719E+00  2.137372633244E+00  2.163021104843E+00
  2.188977358101E+00  2.215245086398E+00  2.241828027435E+00  2.268729963764E+00
  2.295954723329E+00  2.323506180009E+00  2.351388254169E+00  2.379604913219E+00
  2.408160172178E+00  2.437058094244E+00  2.466302791375E+00  2.495898424871E+00
  2.525849205970E+00  2.556159396442E+00  2.586833309199E+00  2.617875308909E+00
  2.649289812616E+00  2.681081290368E+00  2.713254265852E+00  2.745813317042E+00
  2.778763076847E+00  2.812108233769E+00  2.845853532574E+00  2.880003774965E+00
  2.914563820265E+00  2.949538586108E+00  2.984933049141E+00  3.020752245731E+00
  3.057001272680E+00  3.093685287952E+00  3.130809511407E+00  3.168379225544E+00
  3.206399776250E+00  3.244876573566E+00  3.283815092448E+00  3.323220873558E+00
  3.363099524040E+00  3.403456718329E+00  3.444298198949E+00  3.485629777336E+00
  3.527457334664E+00  3.569786822680E+00  3.612624264552E+00  3.655975755727E+00
  3.699847464796E+00  3.744245634373E+00  3.789176581986E+00  3.834646700970E+00
  3.880662461381E+00  3.927230410918E+00  3.974357175849E+00  4.022049461959E+00
  4.070314055502E+00  4.119157824168E+00  4.168587718059E+00  4.218610770675E+00
  4.269234099923E+00  4.320464909122E+00  4.372310488032E+00  4.424778213888E+00
  4.477875552455E+00  4.531610059084E+00  4.585989379793E+00  4.641021252351E+00
  4.696713507379E+00  4.753074069468E+00  4.810110958301E+00  4.867832289801E+00
  4.926246277279E+00  4.985361232606E+00  5.045185567397E+00  5.105727794206E+00
  5.166996527736E+00  5.229000486069E+00  5.291748491902E+00  5.355249473805E+00
  5.419512467491E+00  5.484546617100E+00  5.550361176506E+00  5.616965510624E+00
  5.684369096751E+00  5.752581525912E+00  5.821612504223E+00  5.891471854274E+00
  5.962169516525E+00  6.033715550723E+00  6.106120137332E+00  6.179393578980E+00
  6.253546301928E+00  6.328588857551E+00  6.404531923842E+00  6.481386306928E+00
  6.559162942611E+00  6.637872897922E+00  6.717527372697E+00  6.798137701170E+00
  6.879715353584E+00  6.962271937827E+00  7.045819201080E+00  7.130369031493E+00
  7.215933459871E+00  7.302524661390E+00  7.390154957327E+00  7.478836816814E+00
  7.568582858616E+00  7.659405852920E+00  7.751318723155E+00  7.844334547832E+00
  7.938466562406E+00  8.033728161155E+00  8.130132899089E+00  8.227694493878E+00
  8.326426827805E+00  8.426343949738E+00  8.527460077135E+00  8.629789598061E+00
  8.733347073238E+00  8.838147238117E+00  8.944205004974E+00  9.051535465034E+00
  9.160153890614E+00  9.270075737301E+00  9.381316646149E+00  9.493892445903E+00
  9.607819155254E+00  9.723112985117E+00  9.839790340938E+00  9.957867825029E+00
  1.007736223893E+01  1.019829058580E+01  1.032067007283E+01  1.044451811370E+01
  1.056985233106E+01  1.069669055904E+01  1.082505084575E+01  1.095495145589E+01
  1.108641087337E+01  1.121944780385E+01  1.135408117749E+01  1.149033015162E+01
  1.162821411344E+01  1.176775268280E+01  1.190896571500E+01  1.205187330358E+01
  1.219649578322E+01  1.234285373262E+01  1.249096797741E+01  1.264085959314E+01
  1.279254990826E+01  1.294606050716E+01  1.310141323324E+01  1.325863019204E+01
  1.341773375434E+01  1.357874655940E+01  1.374169151811E+01  1.390659181633E+01
  1.407347091812E+01  1.424235256914E+01  1.441326079997E+01  1.458621992957E+01
  1.476125456872E+01  1.493838962355E+01  1.511765029903E+01  1.529906210262E+01
  1.548265084785E+01  1.566844265803E+01  1.585646396992E+01  1.604674153756E+01
  1.623930243601E+01  1.643417406524E+01  1.663138415403E+01  1.683096076387E+01
  1.703293229304E+01  1.723732748056E+01  1.744417541032E+01  1.765350551525E+01
  1.786534758143E+01  1.807973175241E+01  1.829668853344E+01  1.851624879584E+01
  1.873844378139E+01  1.896330510677E+01  1.919086476805E+01  1.942115514526E+01
  1.965420900701E+01  1.989005951509E+01  2.012874022927E+01  2.037028511202E+01
  2.061472853337E+01  2.086210527577E+01  2.111245053908E+01  2.136579994555E+01
  2.162218954489E+01  2.188165581943E+01  2.214423568926E+01  2.240996651754E+01
  2.267888611575E+01  2.295103274913E+01  2.322644514212E+01  2.350516248383E+01
  2.378722443364E+01  2.407267112684E+01  2.436154318036E+01  2.465388169853E+01
  2.494972827891E+01  2.524912501825E+01  2.555211451847E+01  2.585873989270E+01
  2.616904477141E+01  2.648307330866E+01  2.680087018837E+01  2.712248063063E+01
  2.744795039820E+01  2.777732580298E+01  2.811065371261E+01  2.844798155716E+01
  2.878935733585E+01  2.913482962388E+01  2.948444757936E+01  2.983826095032E+01
  3.019632008172E+01  3.055867592270E+01  3.092538003377E+01  3.129648459418E+01
  3.167204240931E+01  3.205210691822E+01  3.243673220124E+01  3.282597298765E+01
  3.321988466351E+01  3.361852327947E+01  3.402194555882E+01  3.443020890553E+01
  3.484337141239E+01  3.526149186934E+01  3.568462977178E+01  3.611284532904E+01
  3.654619947299E+01  3.698475386666E+01  3.742857091306E+01  3.787771376402E+01
  3.833224632919E+01  3.879223328514E+01  3.925774008456E+01  3.972883296557E+01
  4.020557896116E+01  4.068804590869E+01  4.117630245960E+01  4.167041808911E+01
  4.217046310618E+01  4.267650866346E+01  4.318862676742E+01  4.370689028863E+01
  4.423137297209E+01
</grid-data>
</grid>
<valence-charge total-charge="17" is-unscreening-charge="yes"
 rescaled-to-z-pseudo="no">
<radfunc>
<data npts="457">
  3.731618908654E-01  3.744030681672E-01  3.781149804513E-01  3.843131188987E-01
  3.929418586894E-01  4.043075582829E-01  4.188256029566E-01  4.354948380676E-01
  4.542946597122E-01  4.762943503903E-01  5.011898028084E-01  5.283669736158E-01
  5.613750109619E-01  5.960381430412E-01  6.371764192888E-01  6.785271441331E-01
  7.264708789289E-01  7.722381663798E-01  8.240611521979E-01  8.827706227550E-01
  9.493173429079E-01  1.008924132557E+00  1.074870368549E+00  1.147858579083E+00
  1.228672634850E+00  1.318187196990E+00  1.417378080694E+00  1.498771412764E+00
  1.586721763107E+00  1.681776078131E+00  1.784526907885E+00  1.895615643986E+00
  2.015735788427E+00  2.145636188652E+00  2.286124153813E+00  2.438068342390E+00
  2.602401281529E+00  2.780121343025E+00  2.906562039952E+00  3.039757025626E+00
  3.180051812978E+00  3.327804856665E+00  3.483387136276E+00  3.647181548483E+00
  3.819582077763E+00  4.000992712165E+00  4.191826067240E+00  4.392501677949E+00
  4.603443914895E+00  4.825079477972E+00  5.057834417325E+00  5.302130628664E+00
  5.558381767552E+00  5.826988525472E+00  6.108333209509E+00  6.402773567607E+00
  6.710635802840E+00  7.032206723351E+00  7.367724979916E+00  7.717371350838E+00
  8.081258044697E+00  8.459417005602E+00  8.851787223806E+00  9.258201077134E+00
  9.678369756338E+00  1.011186786057E+01  1.055811728819E+01  1.078579724910E+01
  1.101637059338E+01  1.124971464761E+01  1.148569403055E+01  1.172416012653E+01
  1.196495056659E+01  1.220788872070E+01  1.245278320483E+01  1.269942740661E+01
  1.294759903407E+01  1.319705969176E+01  1.344755448932E+01  1.369881168752E+01
  1.395054238721E+01  1.420244026694E+01  1.445418137530E+01  1.470542398399E+01
  1.495580850845E+01  1.520495750227E+01  1.545247573263E+01  1.569795034337E+01
  1.594095111292E+01  1.618103081405E+01  1.641772568239E+01  1.665055600071E+01
  1.687902680553E+01  1.710262872256E+01  1.732083893703E+01  1.753312230439E+01
  1.773893260655E+01  1.793771395786E+01  1.812890236436E+01  1.831192743893E+01
  1.848621427380E+01  1.865118547073E+01  1.880626332777E+01  1.895087218020E+01
  1.908444089135E+01  1.920640548751E+01  1.931621192914E+01  1.941331900860E+01
  1.949720136259E+01  1.956735258523E+01  1.962328842554E+01  1.966455005065E+01
  1.969070735405E+01  1.970136228548E+01  1.969615217719E+01  1.967475303894E+01
  1.963688279214E+01  1.958230441172E+01  1.951082894265E+01  1.942231835673E+01
  1.931668821415E+01  1.919391009401E+01  1.905401375732E+01  1.889708900675E+01
  1.872328720789E+01  1.853282243842E+01  1.832597223345E+01  1.810307789784E+01
  1.786454435995E+01  1.761083954474E+01  1.734249324900E+01  1.706009550674E+01
  1.676429443819E+01  1.645579358261E+01  1.613534872146E+01  1.580376420568E+01
  1.546188880829E+01  1.511061113074E+01  1.475085459882E+01  1.438357209138E+01
  1.400974025158E+01  1.363035353705E+01  1.324641807070E+01  1.285894535863E+01
  1.246894594550E+01  1.207742307994E+01  1.168536646389E+01  1.129374615937E+01
  1.090350672459E+01  1.051556164771E+01  1.013078814201E+01  9.750022359542E+00
  9.374055072852E+00  9.003627865189E+00  8.639429859699E+00  8.282095007190E+00
  7.932199940803E+00  7.590262394475E+00  7.256740170868E+00  6.932030633892E+00
  6.616470691446E+00  6.310337225960E+00  6.013847924153E+00  5.727162453789E+00
  5.450383934796E+00  5.183560711317E+00  4.926688608004E+00  4.679713853283E+00
  4.442537734379E+00  4.215026012353E+00  3.997020896572E+00  3.788343666758E+00
  3.588797182657E+00  3.398168284754E+00  3.216230092828E+00  3.042744183477E+00
  2.877462644960E+00  2.720130006282E+00  2.570485038960E+00  2.428262431001E+00
  2.293194333662E+00  2.165011782461E+00  2.043445994750E+00  1.928229546838E+00
  1.819097434326E+00  1.715788019807E+00  1.618043872595E+00  1.525612505151E+00
  1.438247012095E+00  1.355706616604E+00  1.277757130142E+00  1.204171331128E+00
  1.134729268262E+00  1.069218494183E+00  1.007434235085E+00  9.491795017885E-01
  8.942651476363E-01  8.425098783959E-01  7.937402191702E-01  7.477904430871E-01
  7.045024663122E-01  6.637257136807E-01  6.253169589937E-01  5.891401437619E-01
  5.550661779190E-01  5.229727257680E-01  4.927439801617E-01  4.642704276675E-01
  4.374486072164E-01  4.121808645008E-01  3.883751041497E-01  3.659445414956E-01
  3.448074555325E-01  3.248869444730E-01  3.061106851210E-01  2.884106971076E-01
  2.717231128741E-01  2.559879541397E-01  2.411489154509E-01  2.271531552909E-01
  2.139510951071E-01  2.014962265188E-01  1.897449268715E-01  1.786562832251E-01
  1.681919247900E-01  1.583158637648E-01  1.489943444704E-01  1.401957006350E-01
  1.318902206390E-01  1.240500205000E-01  1.166489243518E-01  1.096623521464E-01
  1.030672142978E-01  9.684181296853E-02  9.096574969836E-02  8.541983906580E-02
  8.018602807508E-02  7.524732096174E-02  7.058770911452E-02  6.619210581721E-02
  6.204628552190E-02  5.813682737419E-02  5.445106272098E-02  5.097702634276E-02
  4.770341116377E-02  4.461952620567E-02  4.171525756261E-02  3.898103218818E-02
  3.640778429693E-02  3.398692419556E-02  3.171030937050E-02  2.957021767015E-02
  2.755932243104E-02  2.567066940734E-02  2.389765537280E-02  2.223400827330E-02
  2.067376881520E-02  1.921127338956E-02  1.784113821933E-02  1.655824465097E-02
  1.535772549521E-02  1.423495233609E-02  1.318552373032E-02  1.220525422344E-02
  1.129016411317E-02  1.043646989427E-02  9.640575322825E-03  8.899063041860E-03
  8.208686713706E-03  7.566363608381E-03  6.969167601139E-03  6.414322536169E-03
  5.899195917351E-03  5.421292890878E-03  4.978250488434E-03  4.567832103350E-03
  4.187922175858E-03  3.836521066974E-03  3.511740103831E-03  3.211796782277E-03
  2.935010115273E-03  2.679796118110E-03  2.444663423566E-03  2.228209022021E-03
  2.029114123080E-03  1.846140136542E-03  1.678124771569E-03  1.523978253679E-03
  1.382679659711E-03  1.253273371306E-03  1.134865647543E-03  1.026621317481E-03
  9.277605931664E-04  8.375560035288E-04  7.553294492506E-04  6.804493783799E-04
  6.123280820521E-04  5.504191092801E-04  4.942147993542E-04  4.432439299798E-04
  3.970694788881E-04  3.552864962917E-04  3.175200852290E-04  2.834234865600E-04
  2.526762651400E-04  2.249825935148E-04  2.000696293488E-04  1.776859827130E-04
  1.576002693279E-04  1.395997458637E-04  1.234890234476E-04  1.090888556119E-04
  9.623499702041E-05  8.477712944543E-05  7.457785160722E-05  6.551172964526E-05
  5.746440514728E-05  5.033175782083E-05  4.401912004690E-05  3.844054070303E-05
  3.351809578300E-05  2.918124346943E-05  2.536622143468E-05  2.201548425290E-05
  1.907717890383E-05  1.650465643603E-05  1.425601793586E-05  1.229369301925E-05
  1.058404912713E-05  9.097029964210E-06  7.805821474992E-06  6.686543802239E-06
  5.717967722079E-06  4.881254097727E-06  4.159714940897E-06  3.538594717045E-06
  3.004870578009E-06  2.547070253671E-06  2.155106383100E-06  1.820126115355E-06
  1.534374860615E-06  1.291073123500E-06  1.084305402167E-06  9.089201887933E-07
  7.604401591495E-07  6.349816908487E-07  5.291829013077E-07  4.401394471600E-07
  3.653473766048E-07  3.026523747126E-07  2.502047888308E-07  2.064198667531E-07
  1.699426840787E-07  1.396172790548E-07  1.144595530755E-07  9.363353281369E-08
  7.643062565100E-08  6.225153361680E-08  5.059052244216E-08  4.102177160734E-08
  3.318755843820E-08  2.678805444548E-08  2.157253526314E-08  1.733182680496E-08
  1.389182970576E-08  1.110798183704E-08  8.860534781192E-09  7.050534712715E-09
  5.596411269672E-09  4.431089802788E-09  3.499552963262E-09  2.756787029474E-09
  2.166056771487E-09  1.697460100475E-09  1.326720335115E-09  1.034179707779E-09
  8.039629011956E-10  6.232835230443E-10  4.764229920599E-10  3.674905244690E-10
  2.826568962325E-10  2.167798246988E-10  1.657713954455E-10  1.263913056757E-10
  9.607864973073E-11  7.281547141198E-11  5.501641835507E-11  4.143977738977E-11
  3.111596898279E-11  2.329025329977E-11  1.737696765744E-11  1.292309056586E-11
  9.579324665197E-12  7.077221393628E-12  5.211144382650E-12  3.824095178655E-12
  2.796611523108E-12  2.038101590753E-12  1.480102836834E-12  1.071056158409E-12
  7.722689252862E-13  5.548074500444E-13  3.971134705954E-13  2.831825764160E-13
  2.011771887307E-13  1.423743374839E-13  1.003704113838E-13  7.048239977328E-14
  4.929880403306E-14  3.434411163592E-14  2.382909874277E-14  1.646574322703E-14
  1.133058041119E-14  7.764232193323E-15  5.297836935047E-15  3.599401395091E-15
  2.434844508684E-15  1.639829905139E-15  1.099486941350E-15  7.338745988916E-16
  4.876078226241E-16  3.224873882541E-16  2.122872998822E-16  1.390849540223E-16
  9.068939522480E-17  5.884751576123E-17  3.799879199438E-17  2.441495474679E-17
  1.560848217662E-17  9.927910733981E-18  6.282333755223E-18  3.954788708853E-18
  2.476495649887E-18  1.542539851423E-18  9.556348071829E-19  5.888113028548E-19
  3.607949548054E-19  2.198447487217E-19  1.332029655595E-19  8.024617281725E-20
  4.806373564627E-20  2.861957830349E-20  1.694067985304E-20  9.967570956424E-21
  5.829178214364E-21  3.388074914824E-21  1.957014414797E-21  1.123305842372E-21
  0.000000000000E+00  0.000000000000E+00  0.000000000000E+00  0.000000000000E+00
  0.000000000000E+00  0.000000000000E+00  0.000000000000E+00  0.000000000000E+00
  0.000000000000E+00
</data>
</radfunc>
</valence-charge>
<pseudocore-charge matching-radius="0.656159629232"
 number-of-continuous-derivatives="4">
<annotation model-charge-form="Teter function with specified parameters" />
<radfunc>
<data npts="290">
  1.410497882232E+02  1.410323358925E+02  1.409801708454E+02  1.408931610935E+02
  1.407722281309E+02  1.406132855792E+02  1.404108328986E+02  1.401791687758E+02
  1.399188934081E+02  1.396156467378E+02  1.392741915442E+02  1.389034808339E+02
  1.384560504677E+02  1.379894507798E+02  1.374399427224E+02  1.368921492374E+02
  1.362625937722E+02  1.356670722101E+02  1.349990225953E+02  1.342500267525E+02
  1.334108007663E+02  1.326676268686E+02  1.318545164648E+02  1.309653791143E+02
  1.299936968914E+02  1.289325168755E+02  1.277744493422E+02  1.268376272947E+02
  1.258384609687E+02  1.247733698142E+02  1.236386552132E+02  1.224305114180E+02
  1.211450396581E+02  1.197782658709E+02  1.183261625440E+02  1.167846751961E+02
  1.151497540494E+02  1.134173914740E+02  1.122064073144E+02  1.109492395655E+02
  1.096447920688E+02  1.082920112278E+02  1.068898949260E+02  1.054375021966E+02
  1.039339636661E+02  1.023784927917E+02  1.007703979018E+02  9.910909504517E+01
  9.739412164322E+01  9.562515092878E+01  9.380200714263E+01  9.192468144371E+01
  8.999334847226E+01  8.800838348525E+01  8.597037996222E+01  8.388016755480E+01
  8.173883022664E+01  7.954772440069E+01  7.730849689931E+01  7.502310242786E+01
  7.269382031692E+01  7.032327019997E+01  6.791442626488E+01  6.547062967839E+01
  6.299559874450E+01  6.049343632086E+01  5.796863398433E+01  5.669925293633E+01
  5.542607240791E+01  5.414976262973E+01  5.287101739004E+01  5.159055363263E+01
  5.030911096436E+01  4.902745106811E+01  4.774635701679E+01  4.646663248432E+01
  4.518910084976E+01  4.391460419081E+01  4.264400216337E+01  4.137817076403E+01
  4.011800097297E+01  3.886439727481E+01  3.761827605586E+01  3.638056387655E+01
  3.515219561837E+01  3.393411250553E+01  3.272726000229E+01  3.153258558729E+01
  3.035103640788E+01  2.918355681754E+01  2.803108580104E+01  2.689455429290E+01
  2.577488239573E+01  2.467297650625E+01  2.358972635813E+01  2.252600199192E+01
  2.148265066350E+01  2.046049370426E+01  1.946032334693E+01  1.848289953278E+01
  1.752894671713E+01  1.659915069116E+01  1.569415543952E+01  1.481456005448E+01
  1.396091572803E+01  1.313372284493E+01  1.233342820010E+01  1.156042236477E+01
  1.081503722624E+01  1.009754372649E+01  9.408149825016E+00  8.746998711296E+00
  8.114167291679E+00  7.509664975084E+00  6.933432780793E+00  6.385342790358E+00
  5.865197964018E+00  5.372732339964E+00  4.907611632485E+00  4.469434242194E+00
  4.057732688474E+00  3.671975470741E+00  3.311569361276E+00  2.975862128224E+00
  2.664145682804E+00  2.375659640083E+00  2.109595277632E+00  1.865099871259E+00
  1.641281381774E+00  1.437213461433E+00  1.251940743530E+00  1.084484373473E+00
  9.338477349027E-01  7.990223198713E-01  6.789936880815E-01  5.727474566936E-01
  4.792752593974E-01  3.975806114034E-01  3.266846158433E-01  2.656314468746E-01
  2.134935456336E-01  1.693764671448E-01  1.324233194204E-01  1.018187402838E-01
  7.679236294273E-02  5.662172797053E-02  4.063460708077E-02  2.821071280382E-02
  1.878277776277E-02  1.183699754432E-02  6.912841972084E-03  3.602250690881E-03
  1.548240111841E-03  4.429596756333E-04  2.524577874756E-05  7.773127942177E-05
  4.235769624878E-04  9.228984140603E-04  1.468967178099E-03  1.984268611766E-03
  2.416500344476E-03  2.734594551881E-03  2.924844321593E-03  2.987209226977E-03
  2.931867933302E-03  2.776076414027E-03  2.541379413836E-03  2.251210497151E-03
  1.928902774522E-03  1.596118670506E-03  1.271693392569E-03  9.708736095399E-04
  7.049207760144E-04  4.810380441294E-04  3.025712301512E-04  1.694282140677E-04
  7.865770553649E-05  2.512764460323E-05  2.245617474348E-06  2.668407023301E-06
  1.895487018474E-05  4.412531042572E-05  7.210084822872E-05  9.800735468746E-05
  1.183396221514E-04  1.309919142899E-04  1.351702192799E-04  1.312088646440E-04
  1.203192119350E-04  1.043006722150E-04  8.524419926338E-05  6.525585951144E-05
  4.622337561875E-05  2.964219790853E-05  1.651031173488E-05  7.293355596994E-06
  1.954435027431E-06  3.694628017235E-08  7.843242946098E-07  3.278273426657E-06
  6.576877238796E-06  9.835924667529E-06  1.240051024638E-05  1.385894336960E-05
  1.405657494619E-05  1.307259924638E-05  1.116752524978E-05  8.712266703648E-06
  6.111301772304E-06  3.731979361421E-06  1.849945953368E-06  6.172288130290E-07
  5.532463582265E-08  0.000000000000E+00  0.000000000000E+00  0.000000000000E+00
  0.000000000000E+00  0.000000000000E+00  0.000000000000E+00  0.000000000000E+00
  0.000000000000E+00  0.000000000000E+00  0.000000000000E+00  0.000000000000E+00
  0.000000000000E+00  0.000000000000E+00  0.000000000000E+00  0.000000000000E+00
  0.000000000000E+00  0.000000000000E+00  0.000000000000E+00  0.000000000000E+00
  0.000000000000E+00  0.000000000000E+00  0.000000000000E+00  0.000000000000E+00
  0.000000000000E+00  0.000000000000E+00  0.000000000000E+00  0.000000000000E+00
  0.000000000000E+00  0.000000000000E+00  0.000000000000E+00  0.000000000000E+00
  0.000000000000E+00  0.000000000000E+00  0.000000000000E+00  0.000000000000E+00
  0.000000000000E+00  0.000000000000E+00  0.000000000000E+00  0.000000000000E+00
  0.000000000000E+00  0.000000000000E+00  0.000000000000E+00  0.000000000000E+00
  0.000000000000E+00  0.000000000000E+00  0.000000000000E+00  0.000000000000E+00
  0.000000000000E+00  0.000000000000E+00  0.000000000000E+00  0.000000000000E+00
  0.000000000000E+00  0.000000000000E+00  0.000000000000E+00  0.000000000000E+00
  0.000000000000E+00  0.000000000000E+00  0.000000000000E+00  0.000000000000E+00
  0.000000000000E+00  0.000000000000E+00  0.000000000000E+00  0.000000000000E+00
  0.000000000000E+00  0.000000000000E+00  0.000000000000E+00  0.000000000000E+00
  0.000000000000E+00  0.000000000000E+00  0.000000000000E+00  0.000000000000E+00
  0.000000000000E+00  0.000000000000E+00  0.000000000000E+00  0.000000000000E+00
  0.000000000000E+00  0.000000000000E+00
</data>
</radfunc>
</pseudocore-charge>
<semilocal-potentials set="scalar_relativistic">
<slps n="4" l="s" rc="1.40786919618" eref="-3.02928140163">
<radfunc>
<data npts="290">
  2.588297896140E+01  2.586079920364E+01  2.579459594424E+01  2.568447669878E+01
  2.553205610608E+01  2.533283867371E+01  2.508089328317E+01  2.479505054638E+01
  2.447698884132E+01  2.411046708676E+01  2.370289253910E+01  2.326642799008E+01
  2.274781322254E+01  2.221627596368E+01  2.160213082927E+01  2.100227915897E+01
  2.032767683815E+01  1.970362720781E+01  1.901932014664E+01  1.827119275377E+01
  1.745598235994E+01  1.675359435294E+01  1.600526182711E+01  1.521008384972E+01
  1.436750045117E+01  1.347734545281E+01  1.253989760458E+01  1.180621992071E+01
  1.104688348393E+01  1.026258627901E+01  9.454209978283E+00  8.622824260393E+00
  7.769688770413E+00  6.896252489402E+00  6.004150334527E+00  5.095196875982E+00
  4.171377132895E+00  3.234834494722E+00  2.604528415207E+00  1.970291092709E+00
  1.332854529641E+00  6.929704671376E-01  5.140753658706E-02 -5.910517060078E-01
 -1.233613832326E+00 -1.875477648389E+00 -2.515837321956E+00 -3.153885496271E+00
 -3.788816355501E+00 -4.419828607515E+00 -5.046128350508E+00 -5.666931791306E+00
 -6.281467785051E+00 -6.888980168257E+00 -7.488729859913E+00 -8.079996708348E+00
 -8.662081064863E+00 -9.234305068722E+00 -9.796013631709E+00 -1.034657511436E+01
 -1.088538168976E+01 -1.141184939476E+01 -1.192541787240E+01 -1.242554981307E+01
 -1.291173010613E+01 -1.338346471756E+01 -1.384027931312E+01 -1.406294837097E+01
 -1.428171765134E+01 -1.449653265416E+01 -1.470733977453E+01 -1.491408623761E+01
 -1.511672003179E+01 -1.531518984051E+01 -1.550944497323E+01 -1.569943529587E+01
 -1.588511116122E+01 -1.606642333989E+01 -1.624332295217E+01 -1.641576140160E+01
 -1.658369031069E+01 -1.674706145958E+01 -1.690582672824E+01 -1.705993804315E+01
 -1.720934732906E+01 -1.735400646686E+01 -1.749386725835E+01 -1.762888139895E+01
 -1.775900045918E+01 -1.788417587604E+01 -1.800435895514E+01 -1.811950088464E+01
 -1.822955276186E+01 -1.833446563346E+01 -1.843419054983E+01 -1.852867863441E+01
 -1.861788116828E+01 -1.870174969016E+01 -1.878023611184E+01 -1.885329284850E+01
 -1.892087296336E+01 -1.898293032544E+01 -1.903941977912E+01 -1.909029732369E+01
 -1.913552030104E+01 -1.917504758910E+01 -1.920883979913E+01 -1.923685947439E+01
 -1.925907128853E+01 -1.927544224211E+01 -1.928594185636E+01 -1.929054236396E+01
 -1.928921889752E+01 -1.928194967733E+01 -1.926871620060E+01 -1.924950343568E+01
 -1.922430002478E+01 -1.919309849960E+01 -1.915589551415E+01 -1.911269209883E+01
 -1.906349393959E+01 -1.900831168479E+01 -1.894716128174E+01 -1.888006434354E+01
 -1.880704854532E+01 -1.872814804812E+01 -1.864340394682E+01 -1.855286473772E+01
 -1.845658680030E+01 -1.835463488658E+01 -1.824708261133E+01 -1.813401293560E+01
 -1.801551863628E+01 -1.789170275412E+01 -1.776267901339E+01 -1.762857220686E+01
 -1.748951854056E+01 -1.734566593402E+01 -1.719717427315E+01 -1.704421561440E+01
 -1.688697434065E+01 -1.672564727172E+01 -1.656044373437E+01 -1.639158559941E+01
 -1.621930729686E+01 -1.604385582296E+01 -1.586549075702E+01 -1.568448431023E+01
 -1.550112143360E+01 -1.531570001720E+01 -1.512853121933E+01 -1.493993996994E+01