<?xml version="1.0" encoding="UTF-8" ?>
<psml version="1.1" energy_unit="hartree" length_unit="bohr"
 uuid="fe74a5c0-1d65-11e8-68ef-e337acffb196"
 xmlns="http://esl.cecam.org/PSML/ns/1.1">
<provenance creator="ONCVPSP-3.3.0+psml-3.3.0-73 (scalar-relativistic)"
 date="2018-03-01">
<annotation action="semilocal-pseudopotential-generation"
 action-cont="projectors-generation" />
<input-file name="oncvpsp-input">
<![CDATA[# atsym z nc nv iexc psfile
I 53 8 3 -116133 upf
# n l f
1 0 2.0
2 0 2.0
2 1 6.0
3 0 2.0
3 1 6.0
3 2 10.0
4 0 2.0
4 1 6.0
4 2 10.0
5 0 2.0
5 1 5.0
# lmax
2
# l rc ep ncon nbas qcut
0 1.95 0.0 4 7 3.6
1 1.85 0.0 4 7 4.8
2 1.85 0.0 4 7 8.4
# lloc lpopt rc5 dvloc0
4 5 1.8 0.0
# l nproj debl
0 2 2.8
1 2 2.5
2 2 2.0
# icmod fcfact rcfact
3 8.8 1.25
# epsh1 epsh2 depsh
-12.0 12.0 0.02
# rlmax drl
6.0 0.01
 0
]]>
</input-file>
</provenance>
<pseudo-atom-spec atomic-label="I" atomic-number="53" z-pseudo="17"
 flavor="Hamann&apos;s oncvpsp" relativity="scalar" spin-dft="no"
 core-corrections="yes">
<annotation pseudo-energy="-107.385902534" />
<exchange-correlation>
<annotation oncvpsp-xc-code="-116133" oncvpsp-xc-type="libxc-interface" />
<libxc-info number-of-functionals="2">
<functional name="Perdew, Burke &amp; Ernzerhof SOL (GGA)" type="exchange"
 id="116" />
<functional name="Perdew, Burke &amp; Ernzerhof SOL (GGA)" type="correlation"
 id="133" />
</libxc-info>
</exchange-correlation>
<valence-configuration total-valence-charge="17">
<shell n="4" l="d" occupation="10" />
<shell n="5" l="s" occupation="2" />
<shell n="5" l="p" occupation="5" />
</valence-configuration>
</pseudo-atom-spec>
<grid npts="458">
<annotation type="sampled from oncvpsp log grid"
 recipe="r(i:1..N) = r1*exp(a*(i-1)) + r=0; resampled"
 recipe-cont="r1: scale; a: step" scale="0.943396226415E-05"
 step="0.119285708653E-01" delta="0.500000000000E-02" rmax="44.3807093700" />
<grid-data>
  0.000000000000E+00  5.007762362137E-03  1.012264367117E-02  1.518557966799E-02
  2.021918633661E-02  2.536257896747E-02  3.069598770929E-02  3.584497442415E-02
  4.087087281817E-02  4.604887635970E-02  5.126767823703E-02  5.640112283188E-02
  6.204858043287E-02  6.745209415252E-02  7.245669368045E-02  7.783260883245E-02
  8.360738932391E-02  8.874568074888E-02  9.419975812269E-02  9.998902882364E-02
  1.061340929567E-01  1.113209650746E-01  1.167613244709E-01  1.224675593053E-01
  1.284526631584E-01  1.347302646194E-01  1.413146583191E-01  1.464632781427E-01
  1.517994813805E-01  1.573301023957E-01  1.630622245526E-01  1.690031892890E-01
  1.751606055187E-01  1.815423593765E-01  1.881566243185E-01  1.950118715903E-01
  2.021168810766E-01  2.094807525460E-01  2.145384558354E-01  2.197182723131E-01
  2.250231502799E-01  2.304561092202E-01  2.360202415212E-01  2.417187142325E-01
  2.475547708689E-01  2.535317332568E-01  2.596530034246E-01  2.659220655392E-01
  2.723424878896E-01  2.789179249172E-01  2.856521192964E-01  2.925489040647E-01
  2.996122048045E-01  3.068460418773E-01  3.142545327123E-01  3.218418941502E-01
  3.296124448425E-01  3.375706077108E-01  3.457209124634E-01  3.540679981739E-01
  3.626166159218E-01  3.713716314966E-01  3.803380281675E-01  3.895209095195E-01
  3.989255023590E-01  4.085571596879E-01  4.184213637514E-01  4.234424201164E-01
  4.285237291578E-01  4.336660139077E-01  4.388700060746E-01  4.441364461475E-01
  4.494660835013E-01  4.548596765033E-01  4.603179926214E-01  4.658418085328E-01
  4.714319102352E-01  4.770890931580E-01  4.828141622759E-01  4.886079322232E-01
  4.944712274099E-01  5.004048821388E-01  5.064097407245E-01  5.124866576132E-01
  5.186364975046E-01  5.248601354746E-01  5.311584571003E-01  5.375323585855E-01
  5.439827468885E-01  5.505105398512E-01  5.571166663294E-01  5.638020663254E-01
  5.705676911213E-01  5.774145034147E-01  5.843434774557E-01  5.913555991852E-01
  5.984518663754E-01  6.056332887719E-01  6.129008882372E-01  6.202556988960E-01
  6.276987672828E-01  6.352311524901E-01  6.428539263200E-01  6.505681734359E-01
  6.583749915171E-01  6.662754914153E-01  6.742707973123E-01  6.823620468800E-01
  6.905503914426E-01  6.988369961399E-01  7.072230400936E-01  7.157097165747E-01
  7.242982331736E-01  7.329898119717E-01  7.417856897153E-01  7.506871179919E-01
  7.596953634078E-01  7.688117077687E-01  7.780374482620E-01  7.873738976411E-01
  7.968223844128E-01  8.063842530257E-01  8.160608640621E-01  8.258535944308E-01
  8.357638375640E-01  8.457930036147E-01  8.559425196581E-01  8.662138298940E-01
  8.766083958527E-01  8.871276966030E-01  8.977732289622E-01  9.085465077098E-01
  9.194490658023E-01  9.304824545919E-01  9.416482440470E-01  9.529480229756E-01
  9.643833992513E-01  9.759560000423E-01  9.876674720428E-01  9.995194817073E-01
  1.011513715488E+00  1.023651880074E+00  1.035935702635E+00  1.048366931066E+00
  1.060947334239E+00  1.073678702250E+00  1.086562846677E+00  1.099601600837E+00
  1.112796820047E+00  1.126150381888E+00  1.139664186470E+00  1.153340156708E+00
  1.167180238588E+00  1.181186401451E+00  1.195360638269E+00  1.209704965928E+00
  1.224221425519E+00  1.238912082625E+00  1.253779027617E+00  1.268824375948E+00
  1.284050268460E+00  1.299458871681E+00  1.315052378141E+00  1.330833006679E+00
  1.346803002759E+00  1.362964638792E+00  1.379320214458E+00  1.395872057031E+00
  1.412622521716E+00  1.429573991976E+00  1.446728879880E+00  1.464089626439E+00
  1.481658701956E+00  1.499438606379E+00  1.517431869656E+00  1.535641052092E+00
  1.554068744717E+00  1.572717569653E+00  1.591590180489E+00  1.610689262655E+00
  1.630017533807E+00  1.649577744213E+00  1.669372677143E+00  1.689405149269E+00
  1.709678011060E+00  1.730194147193E+00  1.750956476959E+00  1.771967954683E+00
  1.793231570139E+00  1.814750348981E+00  1.836527353168E+00  1.858565681406E+00
  1.880868469583E+00  1.903438891218E+00  1.926280157913E+00  1.949395519808E+00
  1.972788266046E+00  1.996461725238E+00  2.020419265941E+00  2.044664297132E+00
  2.069200268698E+00  2.094030671922E+00  2.119159039985E+00  2.144588948465E+00
  2.170324015847E+00  2.196367904037E+00  2.222724318885E+00  2.249397010712E+00
  2.276389774840E+00  2.303706452138E+00  2.331350929564E+00  2.359327140719E+00
  2.387639066408E+00  2.416290735204E+00  2.445286224027E+00  2.474629658715E+00
  2.504325214620E+00  2.534377117195E+00  2.564789642602E+00  2.595567118313E+00
  2.626713923733E+00  2.658234490817E+00  2.690133304707E+00  2.722414904364E+00
  2.755083883216E+00  2.788144889815E+00  2.821602628492E+00  2.855461860034E+00
  2.889727402355E+00  2.924404131183E+00  2.959496980757E+00  2.995010944526E+00
  3.030951075861E+00  3.067322488771E+00  3.104130358636E+00  3.141379922940E+00
  3.179076482015E+00  3.217225399799E+00  3.255832104597E+00  3.294902089852E+00
  3.334440914930E+00  3.374454205909E+00  3.414947656380E+00  3.455927028257E+00
  3.497398152596E+00  3.539366930427E+00  3.581839333592E+00  3.624821405595E+00
  3.668319262462E+00  3.712339093612E+00  3.756887162735E+00  3.801969808688E+00
  3.847593446392E+00  3.893764567749E+00  3.940489742562E+00  3.987775619473E+00
  4.035628926907E+00  4.084056474029E+00  4.133065151718E+00  4.182661933538E+00
  4.232853876741E+00  4.283648123262E+00  4.335051900741E+00  4.387072523550E+00
  4.439717393832E+00  4.492994002558E+00  4.546909930589E+00  4.601472849756E+00
  4.656690523953E+00  4.712570810241E+00  4.769121659963E+00  4.826351119883E+00
  4.884267333322E+00  4.942878541322E+00  5.002193083817E+00  5.062219400823E+00
  5.122966033633E+00  5.184441626037E+00  5.246654925549E+00  5.309614784656E+00
  5.373330162072E+00  5.437810124016E+00  5.503063845505E+00  5.569100611651E+00
  5.635929818990E+00  5.703560976818E+00  5.772003708540E+00  5.841267753043E+00
  5.911362966079E+00  5.982299321672E+00  6.054086913532E+00  6.126735956495E+00
  6.200256787972E+00  6.274659869428E+00  6.349955787861E+00  6.426155257316E+00
  6.503269120403E+00  6.581308349848E+00  6.660284050046E+00  6.740207458647E+00
  6.821089948151E+00  6.902943027529E+00  6.985778343859E+00  7.069607683985E+00
  7.154442976193E+00  7.240296291907E+00  7.327179847410E+00  7.415106005579E+00
  7.504087277646E+00  7.594136324978E+00  7.685265960878E+00  7.777489152408E+00
  7.870819022237E+00  7.965268850504E+00  8.060852076710E+00  8.157582301630E+00
  8.255473289250E+00  8.354538968721E+00  8.454793436346E+00  8.556250957582E+00
  8.658925969073E+00  8.762833080702E+00  8.867987077670E+00  8.974402922602E+00
  9.082095757673E+00  9.191080906765E+00  9.301373877647E+00  9.412990364178E+00
  9.525946248549E+00  9.640257603531E+00  9.755940694773E+00  9.873011983111E+00
  9.991488126908E+00  1.011138598443E+01  1.023272261624E+01  1.035551528764E+01
  1.047978147109E+01  1.060553884874E+01  1.073280531493E+01  1.086159897871E+01
  1.099193816645E+01  1.112384142445E+01  1.125732752154E+01  1.139241545180E+01
  1.152912443722E+01  1.166747393047E+01  1.180748361764E+01  1.194917342105E+01
  1.209256350210E+01  1.223767426413E+01  1.238452635529E+01  1.253314067156E+01
  1.268353835962E+01  1.283574081993E+01  1.298976970977E+01  1.314564694629E+01
  1.330339470964E+01  1.346303544616E+01  1.362459187151E+01  1.378808697397E+01
  1.395354401766E+01  1.412098654587E+01  1.429043838442E+01  1.446192364504E+01
  1.463546672878E+01  1.481109232952E+01  1.498882543748E+01  1.516869134272E+01
  1.535071563884E+01  1.553492422650E+01  1.572134331722E+01  1.590999943703E+01
  1.610091943027E+01  1.629413046344E+01  1.648966002900E+01  1.668753594935E+01
  1.688778638074E+01  1.709043981731E+01  1.729552509511E+01  1.750307139626E+01
  1.771310825301E+01  1.792566555205E+01  1.814077353867E+01  1.835846282113E+01
  1.857876437499E+01  1.880170954749E+01  1.902733006206E+01  1.925565802280E+01
  1.948672591908E+01  1.972056663011E+01  1.995721342967E+01  2.019669999082E+01
  2.043906039071E+01  2.068432911540E+01  2.093254106479E+01  2.118373155756E+01
  2.143793633625E+01  2.169519157229E+01  2.195553387116E+01  2.221900027761E+01
  2.248562828094E+01  2.275545582031E+01  2.302852129016E+01  2.330486354564E+01
  2.358452190819E+01  2.386753617108E+01  2.415394660514E+01  2.444379396440E+01
  2.473711949197E+01  2.503396492588E+01  2.533437250499E+01  2.563838497505E+01
  2.594604559475E+01  2.625739814188E+01  2.657248691959E+01  2.689135676262E+01
  2.721405304377E+01  2.754062168030E+01  2.787110914046E+01  2.820556245015E+01
  2.854402919955E+01  2.888655754994E+01  2.923319624054E+01  2.958399459543E+01
  2.993900253057E+01  3.029827056094E+01  3.066184980767E+01  3.102979200536E+01
  3.140214950943E+01  3.177897530354E+01  3.216032300718E+01  3.254624688327E+01
  3.293680184587E+01  3.333204346802E+01  3.373202798964E+01  3.413681232551E+01
  3.454645407342E+01  3.496101152230E+01  3.538054366057E+01  3.580511018449E+01
  3.623477150671E+01  3.666958876479E+01  3.710962382997E+01  3.755493931593E+01
  3.800559858772E+01  3.846166577077E+01  3.892320576002E+01  3.939028422914E+01
  3.986296763989E+01  4.034132325157E+01  4.082541913059E+01  4.131532416015E+01
  4.181110805007E+01  4.231284134668E+01  4.282059544284E+01  4.333444258815E+01
  4.385445589921E+01  4.438070937000E+01
</grid-data>
</grid>
<valence-charge total-charge="17" is-unscreening-charge="yes"
 rescaled-to-z-pseudo="no">
<radfunc>
<data npts="458">
  1.371065394139E-02  1.372142698955E-02  1.375897460719E-02  1.383541599536E-02
  1.397128439375E-02  1.420228366874E-02  1.458279821106E-02  1.513689690153E-02
  1.591065343931E-02  1.701418076661E-02  1.851728444546E-02  2.046201214819E-02
  2.324358649984E-02  2.665120317541E-02  3.056653356090E-02  3.570773217912E-02
  4.246245069137E-02  4.968687238392E-02  5.875960214676E-02  7.015266867626E-02
  8.445632314939E-02  9.848425580604E-02  1.153020022751E-01  1.354559977445E-01
  1.595958494489E-01  1.884924436514E-01  2.230587643719E-01  2.533462859565E-01
  2.879508990238E-01  3.274655661845E-01  3.725589198561E-01  4.239835120308E-01
  4.825846156815E-01  5.493095194108E-01  6.252172222477E-01  7.114883917929E-01
  8.094353946519E-01  9.205121415998E-01  1.002643621279E+00  1.091834998173E+00
  1.188633205665E+00  1.293618392628E+00  1.407404494230E+00  1.530639540257E+00
  1.664005644395E+00  1.808218610816E+00  1.964027086954E+00  2.132211183485E+00
  2.313580474487E+00  2.508971282550E+00  2.719243145517E+00  2.945274353748E+00
  3.187956439588E+00  3.448187494493E+00  3.726864184401E+00  4.024872330957E+00
  4.343075925727E+00  4.682304447251E+00  5.043338357466E+00  5.426892665587E+00
  5.833598464950E+00  6.263982372689E+00  6.718443834504E+00  7.197230298477E+00
  7.700410313991E+00  8.227844675499E+00  8.779155807187E+00  9.063574117501E+00
  9.353695674311E+00  9.649391770076E+00  9.950512610658E+00  1.025688625636E+01
  1.056831756934E+01  1.088458717369E+01  1.120545043537E+01  1.153063646929E+01
  1.185984718219E+01  1.219275635977E+01  1.252900880800E+01  1.286821955842E+01
  1.320997314850E+01  1.355382298826E+01  1.389929082534E+01  1.424586632080E+01
  1.459300674893E+01  1.494013683441E+01  1.528664874074E+01  1.563190222401E+01
  1.597522496647E+01  1.631591310425E+01  1.665323196353E+01  1.698641701960E+01
  1.731467509233E+01  1.763718579164E+01  1.795310322542E+01  1.826155798164E+01
  1.856165939506E+01  1.885249810788E+01  1.913314893151E+01  1.940267401531E+01
  1.966012632540E+01  1.990455343456E+01  2.013500162132E+01  2.035052027317E+01
  2.055016658567E+01  2.073301054552E+01  2.089814018158E+01  2.104466706402E+01
  2.117173202717E+01  2.127851108700E+01  2.136422151984E+01  2.142812806359E+01
  2.146954919838E+01  2.148786345833E+01  2.148251572170E+01  2.145302342183E+01
  2.139898261732E+01  2.132007385561E+01  2.121606776103E+01  2.108683027511E+01
  2.093232747514E+01  2.075262989522E+01  2.054791627376E+01  2.031847665194E+01
  2.006471474908E+01  1.978714954412E+01  1.948641599635E+01  1.916326484406E+01
  1.881856142726E+01  1.845328348843E+01  1.806851791575E+01  1.766545640434E+01
  1.724539002378E+01  1.680970269421E+01  1.635986358842E+01  1.589741849320E+01
  1.542398018023E+01  1.494121785358E+01  1.445084575876E+01  1.395461105471E+01
  1.345428106738E+01  1.295163005855E+01  1.244842565834E+01  1.194641512172E+01
  1.144731158021E+01  1.095278046710E+01  1.046442629954E+01  9.983780002121E+00
  9.512286954495E+00  9.051295939772E+00  8.602049160561E+00  8.165673476182E+00
  7.743172997173E+00  7.335423152443E+00  6.943166320451E+00  6.567009089050E+00
  6.207421179769E+00  5.864736041909E+00  5.539153090693E+00  5.230741532657E+00
  4.939445691293E+00  4.665091717618E+00  4.407395544605E+00  4.165971922084E+00
  3.940344350553E+00  3.729955718793E+00  3.534179441817E+00  3.352330892601E+00
  3.183678923452E+00  3.027457280413E+00  2.882875726663E+00  2.749130707645E+00
  2.625415411127E+00  2.510929098581E+00  2.404885609194E+00  2.306520963580E+00
  2.215100019688E+00  2.129922157614E+00  2.050325992176E+00  1.975693131428E+00
  1.905451015332E+00  1.839074881263E+00  1.776088911844E+00  1.716066626037E+00
  1.658630576839E+00  1.603451419015E+00  1.550246408778E+00  1.498777395096E+00
  1.448848360252E+00  1.400302566114E+00  1.353019363126E+00  1.306910721464E+00
  1.261916288065E+00  1.217993436483E+00  1.175105739634E+00  1.133220312394E+00
  1.092308480563E+00  1.052344404230E+00  1.013305484272E+00  9.751731118494E-01
  9.379323607518E-01  9.015712418670E-01  8.660803403261E-01  8.314523578493E-01
  7.976817083651E-01  7.647641448142E-01  7.326964185283E-01  7.014759705612E-01
  6.711006541413E-01  6.415684872642E-01  6.128774343102E-01  5.850252154545E-01
  5.580091425160E-01  5.318259798863E-01  5.064718290068E-01  4.819420349306E-01
  4.582311133000E-01  4.353326964053E-01  4.132394965353E-01  3.919432851813E-01
  3.714348865452E-01  3.517041838625E-01  3.327401370885E-01  3.145308105533E-01
  2.970634092475E-01  2.803243224638E-01  2.642991735911E-01  2.489728749288E-01
  2.343296864639E-01  2.203532776302E-01  2.070267911480E-01  1.943329081183E-01
  1.822539136241E-01  1.707717621710E-01  1.598681423393E-01  1.495245401918E-01
  1.397223009039E-01  1.304426882679E-01  1.216669417386E-01  1.133763307558E-01
  1.055522061349E-01  9.817604837247E-02  9.122951276116E-02  8.469447125414E-02
  7.855305105988E-02  7.278766998331E-02  6.738106856080E-02  6.231633906183E-02
  5.757695145069E-02  5.314677641729E-02  4.901010559585E-02  4.515166909660E-02
  4.155665047666E-02  3.821069927463E-02  3.509994122861E-02  3.221098629113E-02
  2.953093454711E-02  2.704738013362E-02  2.474841325403E-02  2.262262037353E-02
  2.065908268046E-02  1.884737289590E-02  1.717755051551E-02  1.564015556975E-02
  1.422620099318E-02  1.292716369847E-02  1.173497445676E-02  1.064200669158E-02
  9.641064298792E-03  8.725368609620E-03  7.888544616575E-03  7.124606583954E-03
  6.427943164450E-03  5.793302141812E-03  5.215774916175E-03  4.690780843946E-03
  4.214051538069E-03  3.781615227281E-03  3.389781264952E-03  3.035124869361E-03
  2.714472168155E-03  2.424885610398E-03  2.163649800298E-03  1.928257797502E-03
  1.716397920047E-03  1.525941077611E-03  1.354928654883E-03  1.201560957627E-03
  1.064186227476E-03  9.412902256673E-04  8.314863808228E-04  7.335064915532E-04
  6.461919709896E-04  5.684856174265E-04  4.994238929436E-04  4.381296901696E-04
  3.838055661743E-04  3.357274217735E-04  2.932386042285E-04  2.557444113547E-04
  2.227069753619E-04  1.936405052622E-04  1.681068673554E-04  1.457114840766E-04
  1.260995323390E-04  1.089524233776E-04  9.398454698333E-05  8.094026388181E-05
  6.959113084994E-05  5.973334396284E-05  5.118538612066E-05  4.378586571823E-05
  3.739153399036E-05  3.187546919533E-05  2.712541639231E-05  2.304227212897E-05
  1.953870388847E-05  1.653789465397E-05  1.397240343719E-05  1.178313308959E-05
  9.918397171793E-06  8.333078101146E-06  6.987869230925E-06  5.848593936898E-06
  4.885595199529E-06  4.073189572027E-06  3.389179815794E-06  2.814420864977E-06
  2.332434150047E-06  1.929065666005E-06  1.592183513075E-06  1.311410966056E-06
  1.077891442118E-06  8.840820353338E-07  7.235725692183E-07  5.909273857301E-07
  4.815473405084E-07  3.915497095378E-07  3.176639321255E-07  2.571413192849E-07
  2.076770457211E-07  1.673429180531E-07  1.345295722287E-07  1.078968998936E-07
  8.633163740482E-08  6.891117294267E-08  5.487273746385E-08  4.358724480671E-08
  3.453713582010E-08  2.729766168252E-08  2.152111331665E-08  1.692356768470E-08
  1.327377844278E-08  1.038388858007E-08  8.101686880733E-09  6.304168898015E-09
  4.892197159673E-09  3.786085033515E-09  2.921954535565E-09  2.248740789244E-09
  1.725735233438E-09  1.320576387566E-09  1.007611336388E-09  7.665633885850E-10
  5.814518536335E-10  4.397188058687E-10  3.315252721275E-10  2.491856752063E-10
  1.867147533194E-10  1.394656996480E-10  1.038420519296E-10  7.706901971328E-11
  5.701256181556E-11  4.203670119265E-11  3.089136000848E-11  2.262447515453E-11
  1.651336603305E-11  1.201131646452E-11  8.706138793859E-12  6.288142467929E-12
  4.525458315891E-12  3.245095924857E-12  2.318453601777E-12  1.650274026526E-12
  1.170256733841E-12  8.267116565753E-13  5.817748650080E-13  4.078155028043E-13
  2.847475821454E-13  1.980264924769E-13  1.371616259847E-13  9.461650882748E-14
  6.499871983759E-14  4.446564921508E-14  3.029036576414E-14  2.054576279666E-14
  1.387571750244E-14  9.329993414643E-15  6.245639845304E-15  4.162161930579E-15
  2.761111117286E-15  1.823256739521E-15  1.198358240952E-15  7.839276362474E-16
  5.103769234858E-16  3.306791468228E-16  2.132052953270E-16  1.367851439380E-16
  8.731798582772E-17  5.545823734542E-17  3.504284997085E-17  2.202809233592E-17
  1.377435431002E-17  8.567516578649E-18  5.300295831861E-18  3.261207890528E-18
  1.995544807849E-18  1.214283635707E-18  7.347254713128E-19  4.420247081645E-19
  2.643955825811E-19  1.572233855329E-19  9.294022334275E-20  5.461113347717E-20
  3.189446055228E-20  0.000000000000E+00  0.000000000000E+00  0.000000000000E+00
  0.000000000000E+00  0.000000000000E+00  0.000000000000E+00  0.000000000000E+00
  0.000000000000E+00  0.000000000000E+00  0.000000000000E+00  0.000000000000E+00
  0.000000000000E+00  0.000000000000E+00  0.000000000000E+00  0.000000000000E+00
  0.000000000000E+00  0.000000000000E+00  0.000000000000E+00  0.000000000000E+00
  0.000000000000E+00  0.000000000000E+00  0.000000000000E+00  0.000000000000E+00
  0.000000000000E+00  0.000000000000E+00  0.000000000000E+00  0.000000000000E+00
  0.000000000000E+00  0.000000000000E+00  0.000000000000E+00  0.000000000000E+00
  0.000000000000E+00  0.000000000000E+00
</data>
</radfunc>
</valence-charge>
<pseudocore-charge matching-radius="0.787373897641"
 number-of-continuous-derivatives="4">
<annotation model-charge-form="Teter function with specified parameters" />
<radfunc>
<data npts="291">
  1.891957168219E+02  1.891802423932E+02  1.891324954710E+02  1.890534663739E+02
  1.889436010248E+02  1.887991612365E+02  1.886151098679E+02  1.884044036113E+02
  1.881675487522E+02  1.878914210878E+02  1.875802845246E+02  1.872422286366E+02
  1.868338472038E+02  1.864075437086E+02  1.859818907724E+02  1.854918631465E+02
  1.849279252990E+02  1.843937115177E+02  1.837935484795E+02  1.831195410931E+02
  1.823629153088E+02  1.816916232750E+02  1.809557874795E+02  1.801494956583E+02
  1.792663555440E+02  1.782994691268E+02  1.772414086387E+02  1.763832517420E+02
  1.754657576496E+02  1.744851678770E+02  1.734375388356E+02  1.723187412869E+02
  1.711244614998E+02  1.698502044459E+02  1.684912994033E+02  1.670429083901E+02
  1.655000378926E+02  1.638575544056E+02  1.627046347310E+02  1.615035283657E+02
  1.602526389963E+02  1.589503597191E+02  1.575950780450E+02  1.561851815299E+02
  1.547190640767E+02  1.531951329544E+02  1.516118165830E+02  1.499675731285E+02
  1.482608999569E+02  1.464903439902E+02  1.446545130067E+02  1.427520879261E+02
  1.407818361133E+02  1.387426257294E+02  1.366334411522E+02  1.344533994781E+02
  1.322017681079E+02  1.298779834037E+02  1.274816703904E+02  1.250126634576E+02
  1.224710279939E+02  1.198570828658E+02  1.171714236228E+02  1.144149462827E+02
  1.115888715147E+02  1.086947690038E+02  1.057345817356E+02  1.042304214711E+02
  1.027106499012E+02  1.011756254162E+02  9.962573407016E+01  9.806139023653E+01
  9.648303723546E+01  9.489114792878E+01  9.328622527834E+01  9.166880286336E+01
  9.003944535203E+01  8.839874892272E+01  8.674734162955E+01  8.508588370734E+01
  8.341506781036E+01  8.173561917961E+01  8.004829573261E+01  7.835388807033E+01
  7.665321939496E+01  7.494714533288E+01  7.323655365652E+01  7.152236389935E+01
  6.980552685769E+01  6.808702397357E+01  6.636786659261E+01  6.464909509125E+01
  6.293177786772E+01  6.121701019139E+01  5.950591290549E+01  5.779963097859E+01
  5.609933190039E+01  5.440620391822E+01  5.272145411101E+01  5.104630629801E+01
  4.938199878067E+01  4.772978191632E+01  4.609091552370E+01  4.446666612101E+01
  4.285830399842E+01  4.126710012786E+01  3.969432291448E+01  3.814123479523E+01
  3.660908869141E+01  3.509912432372E+01  3.361256439956E+01  3.215061068435E+01
  3.071443996983E+01  2.930519995448E+01  2.792400505264E+01  2.657193215078E+01
  2.525001633125E+01  2.395924658542E+01  2.270056154007E+01  2.147484522243E+01
  2.028292289102E+01  1.912555696082E+01  1.800344305280E+01  1.691720619911E+01
  1.586739723615E+01  1.485448941867E+01  1.387887528868E+01  1.294086383313E+01
  1.204067796445E+01  1.117845235753E+01  1.035423167615E+01  9.567969220643E+00
  8.819526026862E+00  8.108670444839E+00  7.435078222578E+00  6.798333117730E+00
  6.197928056225E+00  5.633266852955E+00  5.103666505105E+00  4.608360063681E+00
  4.146500083365E+00  3.717162644908E+00  3.319351938029E+00  2.952005386197E+00
  2.613999287824E+00  2.304154941426E+00  2.021245215193E+00  1.764001514405E+00
  1.531121093199E+00  1.321274650614E+00  1.133114144589E+00  9.652807519957E-01
  8.164128977647E-01  6.851542721259E-01  5.701617518112E-01  4.701131391074E-01
  3.837146319021E-01  3.097079385029E-01  2.468769531100E-01  1.940539114594E-01
  1.501249513667E-01  1.140350097073E-01  8.479199573243E-02  6.147019048338E-02
  4.321283330928E-02  2.923386897259E-02  1.881884233051E-02  1.132494187301E-02
  6.180208188356E-03  2.881938392789E-03  9.943323449799E-04  1.454406899388E-04
  2.348804637710E-05  3.726565711080E-04  9.884253181366E-04  1.712568898522E-03
  2.427924619323E-03  3.053040270711E-03  3.536814844237E-03  3.853241590716E-03
  3.996356946927E-03  3.975490064727E-03  3.810896162613E-03  3.529842997940E-03
  3.163203845320E-03  2.742592979188E-03  2.298061396132E-03  1.856352039132E-03
  1.439695803221E-03  1.065112820807E-03  7.441686300850E-04  4.831224469721E-04
  2.833954191757E-04  1.422808414134E-04  5.381609631898E-05  9.737619300260E-06
  4.453367893726E-07  1.591146867403E-05  4.647980254375E-05  8.351485955904E-05
  1.198749681718E-04  1.501982465936E-04  1.710049422325E-04  1.806325925152E-04
  1.790312579964E-04  1.674539925477E-04  1.480823220954E-04  1.236276157618E-04
  9.694693351176E-05  7.070657416564E-05  4.711872525103E-05  2.776713060806E-05
  1.352747573998E-05  4.578228340297E-06  4.889048313982E-07  3.659720884601E-07
  3.032428869545E-06  7.215854722624E-06  1.172135830706E-05  1.557007446147E-05
  1.809003547607E-05  1.895354480805E-05  1.816265976113E-05  1.599109052827E-05
  1.289591388057E-05  9.415379141712E-06  6.069464747203E-06  3.277795067772E-06
  1.305467539521E-06  2.419768063915E-07  0.000000000000E+00  0.000000000000E+00
  0.000000000000E+00  0.000000000000E+00  0.000000000000E+00  0.000000000000E+00
  0.000000000000E+00  0.000000000000E+00  0.000000000000E+00  0.000000000000E+00
  0.000000000000E+00  0.000000000000E+00  0.000000000000E+00  0.000000000000E+00
  0.000000000000E+00  0.000000000000E+00  0.000000000000E+00  0.000000000000E+00
  0.000000000000E+00  0.000000000000E+00  0.000000000000E+00  0.000000000000E+00
  0.000000000000E+00  0.000000000000E+00  0.000000000000E+00  0.000000000000E+00
  0.000000000000E+00  0.000000000000E+00  0.000000000000E+00  0.000000000000E+00
  0.000000000000E+00  0.000000000000E+00  0.000000000000E+00  0.000000000000E+00
  0.000000000000E+00  0.000000000000E+00  0.000000000000E+00  0.000000000000E+00
  0.000000000000E+00  0.000000000000E+00  0.000000000000E+00  0.000000000000E+00
  0.000000000000E+00  0.000000000000E+00  0.000000000000E+00  0.000000000000E+00
  0.000000000000E+00  0.000000000000E+00  0.000000000000E+00  0.000000000000E+00
  0.000000000000E+00  0.000000000000E+00  0.000000000000E+00  0.000000000000E+00
  0.000000000000E+00  0.000000000000E+00  0.000000000000E+00  0.000000000000E+00
  0.000000000000E+00  0.000000000000E+00  0.000000000000E+00
</data>
</radfunc>
</pseudocore-charge>
<semilocal-potentials set="scalar_relativistic">
<slps n="5" l="s" rc="1.97278826605" eref="-0.641220633150">
<radfunc>
<data npts="291">
  1.734668523275E+01  1.733572174830E+01  1.730192830761E+01  1.724610982260E+01
  1.716874948718E+01  1.706746280881E+01  1.693908358026E+01  1.679304593218E+01
  1.663006342329E+01  1.644161364362E+01  1.623125369828E+01  1.600504065657E+01
  1.573497582968E+01  1.545673581920E+01  1.518259599864E+01  1.487145216025E+01
  1.451915151380E+01  1.419098374208E+01  1.382859945724E+01  1.342936105024E+01
  1.299064871197E+01  1.260954551883E+01  1.220031493680E+01  1.176181176485E+01
  1.129301135822E+01  1.079304343286E+01  1.026122831592E+01  9.841186242595E+00
  9.402877623500E+00  8.946303049903E+00  8.471566038940E+00  7.978881657938E+00
  7.468584537288E+00  6.941136051451E+00  6.397130442376E+00  5.837299661547E+00
  5.262516716921E+00  4.673797329977E+00  4.274141426300E+00  3.869181408119E+00
  3.459322499882E+00  3.044996470926E+00  2.626660752002E+00  2.204797368999E+00
  1.779911698415E+00  1.352531051537E+00  9.232030966204E-01  4.924941306843E-01
  6.098721462476E-02 -3.707198127432E-01 -8.020164244589E-01 -1.232281580446E+00
 -1.660885968302E+00 -2.087194289816E+00 -2.510567573125E+00 -2.930365490796E+00
 -3.345948665056E+00 -3.756680942730E+00 -4.161931624408E+00 -4.561077634697E+00
 -4.953505623289E+00 -5.338613989844E+00 -5.715814829373E+00 -6.084535798805E+00
 -6.444221909724E+00 -6.794337256752E+00 -7.134366695678E+00 -7.300444299421E+00
 -7.463817490061E+00 -7.624428445470E+00 -7.782220949621E+00 -7.937140445329E+00
 -8.089134088035E+00 -8.238150800941E+00 -8.384141331765E+00 -8.527058311429E+00
 -8.666856314982E+00 -8.803491925078E+00 -8.936923798311E+00 -9.067112734746E+00
 -9.194021750917E+00 -9.317616156627E+00 -9.437863635851E+00 -9.554734331967E+00
 -9.668200937623E+00 -9.778238789450E+00 -9.884825967817E+00 -9.987943401794E+00
 -1.008757497945E+01 -1.018370766352E+01 -1.027633161254E+01 -1.036544030723E+01
 -1.045103068219E+01 -1.053310326249E+01 -1.061166230505E+01 -1.068671594419E+01
 -1.075827634096E+01 -1.082635983547E+01 -1.089098710159E+01 -1.095218330284E+01
 -1.100997824852E+01 -1.106440654878E+01 -1.111550776700E+01 -1.116332656805E+01
 -1.120791286027E+01 -1.124932192935E+01 -1.128761456149E+01 -1.132285715357E+01
 -1.135512180739E+01 -1.138448640494E+01 -1.141103466162E+01 -1.143485615383E+01
 -1.145604631735E+01 -1.147470641273E+01 -1.149094345367E+01 -1.150487009440E+01
 -1.151660447194E+01 -1.152626999914E+01 -1.153399510439E+01 -1.153991291415E+01
 -1.154416087465E+01 -1.154688030916E+01 -1.154821590802E+01 -1.154831514877E+01
 -1.154732764443E+01 -1.154540441870E+01 -1.154269710743E+01 -1.153935708680E+01
 -1.153553452934E+01 -1.153137739002E+01 -1.152703032569E+01 -1.152263355218E+01
 -1.151832164447E+01 -1.151422228665E+01 -1.151045497927E+01 -1.150712971334E+01
 -1.150434562118E+01 -1.150218961595E+01 -1.150073503326E+01 -1.150004029008E+01
 -1.150014757814E+01 -1.150108161160E+01 -1.150284845140E+01 -1.150543443167E+01
 -1.150880521665E+01 -1.151290501943E+01 -1.151765601577E+01 -1.152295798669E+01
 -1.152868822161E+01 -1.153470170805E+01 -1.154083162349E+01 -1.154689012944E+01