<?xml version="1.0" encoding="UTF-8" ?>
<psml version="1.1" energy_unit="hartree" length_unit="bohr"
 uuid="db2cc390-1d60-11e8-6dc8-e1795fae33fd"
 xmlns="http://esl.cecam.org/PSML/ns/1.1">
<provenance creator="ONCVPSP-3.3.0+psml-3.3.0-73 (scalar-relativistic)"
 date="2018-03-01">
<annotation action="semilocal-pseudopotential-generation"
 action-cont="projectors-generation" />
<input-file name="oncvpsp-input">
<![CDATA[# atsym z nc nv iexc psfile
Au 79 10 4 -116133 upf
# n l f
1 0 2.0
2 0 2.0
2 1 6.0
3 0 2.0
3 1 6.0
3 2 10.0
4 0 2.0
4 1 6.0
4 2 10.0
4 3 14.0
5 0 2.0
5 1 6.0
5 2 10.0
6 0 1.0
# lmax
3
# l rc ep ncon nbas qcut
0 1.45 0.0 4 8 8.6
1 1.55 0.0 4 8 8.4
2 1.55 0.0 4 8 8.4
3 1.6  0.1 4 8 6.8
# lloc lpopt rc5 dvloc0
4 3 1.4 0.0
# l nproj debl
0 2 1.0
1 2 2.5
2 2 1.5
3 1 1.5
# icmod fcfact rcfact
3 5.0 1.37
# epsh1 epsh2 depsh
-14.0 12.0 0.02
# rlmax drl
5.0 0.01
 0
]]>
</input-file>
</provenance>
<pseudo-atom-spec atomic-label="Au" atomic-number="79" z-pseudo="19"
 flavor="Hamann&apos;s oncvpsp" relativity="scalar" spin-dft="no"
 core-corrections="yes">
<annotation pseudo-energy="-137.817399274" />
<exchange-correlation>
<annotation oncvpsp-xc-code="-116133" oncvpsp-xc-type="libxc-interface" />
<libxc-info number-of-functionals="2">
<functional name="Perdew, Burke &amp; Ernzerhof SOL (GGA)" type="exchange"
 id="116" />
<functional name="Perdew, Burke &amp; Ernzerhof SOL (GGA)" type="correlation"
 id="133" />
</libxc-info>
</exchange-correlation>
<valence-configuration total-valence-charge="19">
<shell n="5" l="s" occupation="2" />
<shell n="5" l="p" occupation="6" />
<shell n="5" l="d" occupation="10" />
<shell n="6" l="s" occupation="1" />
</valence-configuration>
</pseudo-atom-spec>
<grid npts="457">
<annotation type="sampled from oncvpsp log grid"
 recipe="r(i:1..N) = r1*exp(a*(i-1)) + r=0; resampled"
 recipe-cont="r1: scale; a: step" scale="0.632911392405E-05"
 step="0.119285708653E-01" delta="0.500000000000E-02" rmax="44.1367072872" />
<grid-data>
  0.000000000000E+00  5.039992789998E-03  1.006699007359E-02  1.510209039707E-02
  2.010802264298E-02  2.522313725547E-02  3.052722328344E-02  3.564790122404E-02
  4.113392158581E-02  4.634525124339E-02  5.159764181868E-02  5.676412574402E-02
  6.244793091137E-02  6.788622215170E-02  7.292303175120E-02  7.833354679692E-02
  8.414549431680E-02  8.931685626691E-02  9.480603659383E-02  1.006325675835E-01
  1.068171819253E-01  1.120374372382E-01  1.175128112974E-01  1.232557719939E-01
  1.292793965363E-01  1.355974012286E-01  1.422241727032E-01  1.474059295265E-01
  1.527764770685E-01  1.583426936788E-01  1.641117083111E-01  1.700909096533E-01
  1.762879555909E-01  1.827107830146E-01  1.893676179856E-01  1.962669862713E-01
  2.034177242645E-01  2.108289903007E-01  2.159192454425E-01  2.211323997045E-01
  2.264714203629E-01  2.319393463362E-01  2.375392899141E-01  2.432744385298E-01
  2.491480565737E-01  2.551634872516E-01  2.613241544878E-01  2.676335648737E-01
  2.740953096641E-01  2.807130668206E-01  2.874906031059E-01  2.944317762273E-01
  3.015405370325E-01  3.088209317586E-01  3.162771043350E-01  3.239132987421E-01
  3.317338614269E-01  3.397432437772E-01  3.479460046550E-01  3.563468129913E-01
  3.649504504442E-01  3.737618141197E-01  3.827859193598E-01  3.920279025969E-01
  4.014930242772E-01  4.111866718553E-01  4.211143628606E-01  4.261677352149E-01
  4.312817480375E-01  4.364571290139E-01  4.416946145621E-01  4.469949499368E-01
  4.523588893361E-01  4.577871960081E-01  4.632806423602E-01  4.688400100685E-01
  4.744660901894E-01  4.801596832716E-01  4.859215994709E-01  4.917526586645E-01
  4.976536905685E-01  5.036255348553E-01  5.096690412736E-01  5.157850697689E-01
  5.219744906061E-01  5.282381844934E-01  5.345770427073E-01  5.409919672198E-01
  5.474838708264E-01  5.540536772764E-01  5.607023214037E-01  5.674307492605E-01
  5.742399182516E-01  5.811307972707E-01  5.881043668379E-01  5.951616192400E-01
  6.023035586708E-01  6.095312013749E-01  6.168455757914E-01  6.242477227009E-01
  6.317386953733E-01  6.393195597178E-01  6.469913944344E-01  6.547552911676E-01
  6.626123546616E-01  6.705637029176E-01  6.786104673526E-01  6.867537929608E-01
  6.949948384763E-01  7.033347765380E-01  7.117747938565E-01  7.203160913828E-01
  7.289598844794E-01  7.377074030931E-01  7.465598919302E-01  7.555186106334E-01
  7.645848339610E-01  7.737598519685E-01  7.830449701922E-01  7.924415098345E-01
  8.019508079525E-01  8.115742176479E-01  8.213131082597E-01  8.311688655588E-01
  8.411428919455E-01  8.512366066489E-01  8.614514459286E-01  8.717888632798E-01
  8.822503296391E-01  8.928373335948E-01  9.035513815979E-01  9.143939981771E-01
  9.253667261553E-01  9.364711268691E-01  9.477087803915E-01  9.590812857562E-01
  9.705902611853E-01  9.822373443195E-01  9.940241924514E-01  1.005952482761E+00
  1.018023912554E+00  1.030240199505E+00  1.042603081899E+00  1.055114318881E+00
  1.067775690708E+00  1.080588998996E+00  1.093556066984E+00  1.106678739788E+00
  1.119958884666E+00  1.133398391282E+00  1.146999171977E+00  1.160763162041E+00
  1.174692319985E+00  1.188788627825E+00  1.203054091359E+00  1.217490740455E+00
  1.232100629341E+00  1.246885836893E+00  1.261848466936E+00  1.276990648539E+00
  1.292314536321E+00  1.307822310757E+00  1.323516178486E+00  1.339398372628E+00
  1.355471153100E+00  1.371736806937E+00  1.388197648620E+00  1.404856020403E+00
  1.421714292648E+00  1.438774864160E+00  1.456040162530E+00  1.473512644480E+00
  1.491194796214E+00  1.509089133769E+00  1.527198203374E+00  1.545524581814E+00
  1.564070876796E+00  1.582839727318E+00  1.601833804046E+00  1.621055809694E+00
  1.640508479410E+00  1.660194581163E+00  1.680116916137E+00  1.700278319131E+00
  1.720681658961E+00  1.741329838868E+00  1.762225796934E+00  1.783372506498E+00
  1.804772976576E+00  1.826430252295E+00  1.848347415322E+00  1.870527584306E+00
  1.892973915318E+00  1.915689602301E+00  1.938677877529E+00  1.961942012059E+00
  1.985485316204E+00  2.009311139999E+00  2.033422873679E+00  2.057823948163E+00
  2.082517835541E+00  2.107508049567E+00  2.132798146162E+00  2.158391723916E+00
  2.184292424603E+00  2.210503933698E+00  2.237029980903E+00  2.263874340673E+00
  2.291040832761E+00  2.318533322755E+00  2.346355722628E+00  2.374511991299E+00
  2.403006135195E+00  2.431842208817E+00  2.461024315323E+00  2.490556607107E+00
  2.520443286392E+00  2.550688605829E+00  2.581296869099E+00  2.612272431528E+00
  2.643619700706E+00  2.675343137115E+00  2.707447254760E+00  2.739936621817E+00
  2.772815861279E+00  2.806089651614E+00  2.839762727434E+00  2.873839880163E+00
  2.908325958725E+00  2.943225870230E+00  2.978544580672E+00  3.014287115640E+00
  3.050458561028E+00  3.087064063760E+00  3.124108832526E+00  3.161598138516E+00
  3.199537316178E+00  3.237931763972E+00  3.276786945140E+00  3.316108388482E+00
  3.355901689143E+00  3.396172509413E+00  3.436926579526E+00  3.478169698480E+00
  3.519907734862E+00  3.562146627680E+00  3.604892387213E+00  3.648151095859E+00
  3.691928909009E+00  3.736232055918E+00  3.781066840589E+00  3.826439642676E+00
  3.872356918388E+00  3.918825201408E+00  3.965851103825E+00  4.013441317071E+00
  4.061602612876E+00  4.110341844231E+00  4.159665946361E+00  4.209581937718E+00
  4.260096920970E+00  4.311218084022E+00  4.362952701030E+00  4.415308133443E+00
  4.468291831044E+00  4.521911333016E+00  4.576174269013E+00  4.631088360241E+00
  4.686661420564E+00  4.742901357610E+00  4.799816173902E+00  4.857413967988E+00
  4.915702935604E+00  4.974691370832E+00  5.034387667282E+00  5.094800319289E+00
  5.155937923120E+00  5.217809178198E+00  5.280422888336E+00  5.343787962996E+00
  5.407913418552E+00  5.472808379575E+00  5.538482080130E+00  5.604943865091E+00
  5.672203191472E+00  5.740269629770E+00  5.809152865327E+00  5.878862699711E+00
  5.949409052108E+00  6.020801960733E+00  6.093051584262E+00  6.166168203273E+00
  6.240162221712E+00  6.315044168373E+00  6.390824698393E+00  6.467514594774E+00
  6.545124769911E+00  6.623666267150E+00  6.703150262356E+00  6.783588065504E+00
  6.864991122290E+00  6.947371015758E+00  7.030739467947E+00  7.115108341562E+00
  7.200489641661E+00  7.286895517361E+00  7.374338263569E+00  7.462830322732E+00
  7.552384286605E+00  7.643012898044E+00  7.734729052821E+00  7.827545801455E+00
  7.921476351072E+00  8.016534067285E+00  8.112732476092E+00  8.210085265805E+00
  8.308606288995E+00  8.408309564463E+00  8.509209279237E+00  8.611319790587E+00
  8.714655628075E+00  8.819231495611E+00  8.925062273559E+00  9.032163020841E+00
  9.140548977092E+00  9.250235564817E+00  9.361238391594E+00  9.473573252294E+00
  9.587256131321E+00  9.702303204897E+00  9.818730843356E+00  9.936555613476E+00
  1.005579428084E+01  1.017646381221E+01  1.029858137795E+01  1.042216435449E+01
  1.054723032674E+01  1.067379709066E+01  1.080188265575E+01  1.093150524762E+01
  1.106268331059E+01  1.119543551032E+01  1.132978073644E+01  1.146573810528E+01
  1.160332696254E+01  1.174256688610E+01  1.188347768873E+01  1.202607942099E+01
  1.217039237404E+01  1.231643708253E+01  1.246423432752E+01  1.261380513945E+01
  1.276517080113E+01  1.291835285074E+01  1.307337308495E+01  1.323025356197E+01
  1.338901660471E+01  1.354968480397E+01  1.371228102162E+01  1.387682839388E+01
  1.404335033460E+01  1.421187053862E+01  1.438241298508E+01  1.455500194090E+01
  1.472966196419E+01  1.490641790776E+01  1.508529492266E+01  1.526631846173E+01
  1.544951428327E+01  1.563490845467E+01  1.582252735613E+01  1.601239768440E+01
  1.620454645661E+01  1.639900101409E+01  1.659578902626E+01  1.679493849457E+01
  1.699647775651E+01  1.720043548959E+01  1.740684071546E+01  1.761572280405E+01
  1.782711147770E+01  1.804103681543E+01  1.825752925721E+01  1.847661960830E+01
  1.869833904360E+01  1.892271911212E+01  1.914979174147E+01  1.937958924237E+01
  1.961214431328E+01  1.984749004503E+01  2.008565992558E+01  2.032668784468E+01
  2.057060809882E+01  2.081745539600E+01  2.106726486076E+01  2.132007203909E+01
  2.157591290355E+01  2.183482385840E+01  2.209684174470E+01  2.236200384563E+01
  2.263034789178E+01  2.290191206648E+01  2.317673501128E+01  2.345485583142E+01
  2.373631410139E+01  2.402114987061E+01  2.430940366906E+01  2.460111651309E+01
  2.489632991124E+01  2.519508587018E+01  2.549742690062E+01  2.580339602343E+01
  2.611303677571E+01  2.642639321702E+01  2.674350993562E+01  2.706443205485E+01
  2.738920523951E+01  2.771787570238E+01  2.805049021081E+01  2.838709609334E+01
  2.872774124646E+01  2.907247414142E+01  2.942134383111E+01  2.977439995709E+01
  3.013169275657E+01  3.049327306965E+01  3.085919234649E+01  3.122950265464E+01
  3.160425668650E+01  3.198350776674E+01  3.236730985994E+01  3.275571757826E+01
  3.314878618920E+01  3.354657162347E+01  3.394913048295E+01  3.435652004875E+01
  3.476879828933E+01  3.518602386880E+01  3.560825615523E+01  3.603555522909E+01
  3.646798189184E+01  3.690559767454E+01  3.734846484664E+01  3.779664642480E+01
  3.825020618189E+01  3.870920865608E+01  3.917371915995E+01  3.964380378987E+01
  4.011952943535E+01  4.060096378857E+01  4.108817535403E+01  4.158123345828E+01
  4.208020825978E+01  4.258517075890E+01  4.309619280801E+01  4.361334712170E+01
  4.413670728716E+01
</grid-data>
</grid>
<valence-charge total-charge="19" is-unscreening-charge="yes"
 rescaled-to-z-pseudo="no">
<radfunc>
<data npts="457">
  1.934033410146E+00  1.935686204389E+00  1.940627488589E+00  1.948873027687E+00
  1.960340853655E+00  1.975426380795E+00  1.994663474311E+00  2.016706432187E+00
  2.044104616505E+00  2.073753551509E+00  2.107206004631E+00  2.143606068489E+00
  2.187652343521E+00  2.233717730205E+00  2.279800379064E+00  2.332960526611E+00
  2.394281510891E+00  2.452510869516E+00  2.518091207982E+00  2.591944852811E+00
  2.675107760113E+00  2.749117522610E+00  2.830486409323E+00  2.919937047110E+00
  3.018260344790E+00  3.126321139423E+00  3.245064057599E+00  3.341747851567E+00
  3.445486381218E+00  3.556778416050E+00  3.676154526789E+00  3.804178343920E+00
  3.941447680172E+00  4.088595460839E+00  4.246290393088E+00  4.415237290373E+00
  4.596176950420E+00  4.789885464728E+00  4.926516940274E+00  5.069430721528E+00
  5.218880574480E+00  5.375125585234E+00  5.538429510969E+00  5.709059990318E+00
  5.887287594954E+00  6.073384702476E+00  6.267624168908E+00  6.470277777352E+00
  6.681614437518E+00  6.901898109071E+00  7.131385420090E+00  7.370322950349E+00
  7.618944147865E+00  7.877465846113E+00  8.146084348762E+00  8.424971048766E+00
  8.714267549308E+00  9.014080255714E+00  9.324474410061E+00  9.645467544231E+00
  9.977022332639E+00  1.031903883332E+01  1.067134611549E+01  1.103369328384E+01
  1.140573992428E+01  1.178704601425E+01  1.217706136134E+01  1.237513025949E+01
  1.257511465966E+01  1.277690988533E+01  1.298040228179E+01  1.318546886237E+01
  1.339197695752E+01  1.359978386844E+01  1.380873652738E+01  1.401867116691E+01
  1.422941300034E+01  1.444077591623E+01  1.465256218945E+01  1.486456221205E+01
  1.507655424701E+01  1.528830420829E+01  1.549956547073E+01  1.571007871375E+01
  1.591957180259E+01  1.612775971138E+01  1.633434449235E+01  1.653901529551E+01
  1.674144844356E+01  1.694130756653E+01  1.713824380104E+01  1.733189605890E+01
  1.752189136992E+01  1.770784530366E+01  1.788936247482E+01  1.806603713688E+01
  1.823745386831E+01  1.840318835554E+01  1.856280827643E+01  1.871587428776E+01
  1.886194111963E+01  1.900055877920E+01  1.913127386568E+01  1.925363099737E+01
  1.936717435140E+01  1.947144931517E+01  1.956600424809E+01  1.965039235086E+01
  1.972417363839E+01  1.978691701118E+01  1.983820241878E+01  1.987762310733E+01
  1.990478794188E+01  1.991932379256E+01  1.992087797210E+01  1.990912071083E+01
  1.988374765327E+01  1.984448235942E+01  1.979107879179E+01  1.972332376825E+01
  1.964103935910E+01  1.954408520578E+01  1.943236073741E+01  1.930580726066E+01
  1.916440989777E+01  1.900819934724E+01  1.883725344150E+01  1.865169847643E+01
  1.845171028793E+01  1.823751505191E+01  1.800938978546E+01  1.776766252879E+01
  1.751271218953E+01  1.724496803411E+01  1.696490881336E+01  1.667306151351E+01
  1.636999972716E+01  1.605634164297E+01  1.573274765754E+01  1.539991761692E+01
  1.505858770066E+01  1.470952696552E+01  1.435353357119E+01  1.399143071473E+01
  1.362406230527E+01  1.325228841450E+01  1.287698054226E+01  1.249901674026E+01
  1.211927663931E+01  1.173863642790E+01  1.135796383148E+01  1.097811314235E+01
  1.059992035020E+01  1.022419842264E+01  9.851732783226E+00  9.483277032448E+00
  9.119548953928E+00  8.761226844489E+00  8.408946202433E+00  8.063296803598E+00
  7.724820189600E+00  7.394007587155E+00  7.071298271692E+00  6.757078382675E+00
  6.451680192250E+00  6.155381823155E+00  5.868407406312E+00  5.590927663319E+00
  5.323060894188E+00  5.064874346491E+00  4.816385939013E+00  4.577566565331E+00
  4.348343617834E+00  4.128605075210E+00  3.918201480628E+00  3.716948205049E+00
  3.524627799699E+00  3.340993938947E+00  3.165781200603E+00  2.998718093928E+00
  2.839529760993E+00  2.687938834668E+00  2.543667310323E+00  2.406437850697E+00
  2.275975007521E+00  2.152006300544E+00  2.034263166024E+00  1.922481782182E+00
  1.816403779149E+00  1.715776841175E+00  1.620355208149E+00  1.529900085379E+00
  1.444179967820E+00  1.362970886781E+00  1.286056586146E+00  1.213228634957E+00
  1.144286482995E+00  1.079037465613E+00  1.017296763779E+00  9.588873249170E-01
  9.036397497948E-01  8.513921503128E-01  8.019899827213E-01  7.552858604084E-01
  7.111393500614E-01  6.694167546574E-01  6.299908864090E-01  5.927408324762E-01
  5.575517159496E-01  5.243144543278E-01  4.929255174410E-01  4.632866865227E-01
  4.353048158968E-01  4.088915985304E-01  3.839633365066E-01  3.604407172872E-01
  3.382485964718E-01  3.173157876106E-01  2.975748594943E-01  2.789619412260E-01
  2.614165352751E-01  2.448813386193E-01  2.293020720025E-01  2.146273172674E-01
  2.008083626602E-01  1.877990559590E-01  1.755556652356E-01  1.640367470255E-01
  1.532030216595E-01  1.430172554860E-01  1.334441497027E-01  1.244502355068E-01
  1.160037752653E-01  1.080746694102E-01  1.006343687630E-01  9.365579199723E-02
  8.711324795615E-02  8.098236255130E-02  7.524000997558E-02  6.986424797745E-02
  6.483425695306E-02  6.013028262498E-02  5.573358208761E-02  5.162637300946E-02
  4.779178580357E-02  4.421381855995E-02  4.087729458280E-02  3.776782235397E-02
  3.487175776502E-02  3.217616846597E-02  2.966880018644E-02  2.733804489156E-02
  2.517291064180E-02  2.316299303263E-02  2.129844809598E-02  1.956996655260E-02
  1.796874931062E-02  1.648648411291E-02  1.511532324272E-02  1.384786220456E-02
  1.267711930441E-02  1.159651606108E-02  1.059985838792E-02  9.681318491023E-03
  8.835417437475E-03  8.057008353609E-03  7.341260219357E-03  6.683642230581E-03
  6.079908706223E-03  5.526084521583E-03  5.018451052807E-03  4.553532620828E-03
  4.128083425518E-03  3.739074962755E-03  3.383683918467E-03  3.059280534646E-03
  2.763417442753E-03  2.493818960010E-03  2.248370843867E-03  2.025110499416E-03
  1.822217633839E-03  1.638005351177E-03  1.470911679737E-03  1.319491523543E-03
  1.182409028194E-03  1.058430350616E-03  9.464168212281E-04  8.453184862901E-04
  7.541680174494E-04  6.720749749294E-04  5.982204103095E-04  5.318517945446E-04
  4.722782566303E-04  4.188661182452E-04  3.710347097714E-04  3.282524532439E-04
  2.900331980406E-04  2.559327954857E-04  2.255458989698E-04  1.985029766807E-04
  1.744675245750E-04  1.531334677883E-04  1.342227392655E-04  1.174830249820E-04
  1.026856657097E-04  8.962370585261E-05  7.811008042443E-05  6.797593176350E-05
  5.906904807403E-05  5.125241634511E-05  4.440288262940E-05  3.840991306290E-05
  3.317444937701E-05  2.860785299576E-05  2.463093212727E-05  2.117304655170E-05
  1.817128508096E-05  1.556971092025E-05  1.331867040170E-05  1.137416078654E-05
  9.697253048262E-06  8.253565754913E-06  7.012786366958E-06  5.948236458126E-06
  5.036477551721E-06  4.256954444495E-06  3.591673064765E-06  3.024910081250E-06
  2.542951644298E-06  2.133858801598E-06  1.787257286249E-06  1.494149525794E-06
  1.246746866569E-06  1.038320148106E-06  8.630668972288E-07  7.159935407220E-07
  5.928111588566E-07  4.898434194747E-07  4.039454437503E-07  3.324324600286E-07
  2.730172013466E-07  2.237550953681E-07  1.829963825975E-07  1.493443799895E-07
  1.216191825704E-07  9.882616562071E-08  8.012871451960E-08  6.482466874596E-08
  5.232602099598E-08  4.214146216668E-08  3.386140831851E-08  2.714518693403E-08
  2.171009709479E-08  1.732209186968E-08  1.378786150298E-08  1.094812316527E-08
  8.671947329856E-09  6.851972500556E-09  5.400379269974E-09  4.245511747252E-09
  3.329049464554E-09  2.603646144264E-09  2.030963362938E-09  1.580037350060E-09
  1.225926063561E-09  9.485914315341E-10  7.319783703986E-10  5.632580023532E-10
  4.322075066963E-10  3.307033476915E-10  2.523083135397E-10  1.919359551085E-10
  1.455786993845E-10  1.100881934174E-10  8.299836498646E-11  6.238331502086E-11
  4.674352673744E-11  3.491502503052E-11  2.599707914622E-11  1.929484405828E-11
  1.427398525384E-11  1.000248813250E-11  7.362077165561E-12  5.400281987890E-12
  3.947651428527E-12  2.875740900652E-12  2.087523568617E-12  1.509960369650E-12
  1.088262986080E-12  7.814796994702E-13  5.591112440969E-13  3.985257117497E-13
  2.829910699927E-13  2.001832842781E-13  1.410593136415E-13  9.900896850465E-14
  6.921907725005E-14  4.819866497401E-14  3.342576276615E-14  2.308573360589E-14
  1.587818038898E-14  1.087504045866E-14  7.416726489415E-15  5.036429332026E-15
  3.405178789611E-15  2.292139840739E-15  1.536042952374E-15  1.024715804671E-15
  6.804838384270E-16  4.498033619133E-16  2.959334019874E-16  1.937792619833E-16
  1.262809810800E-16  8.189567265702E-17  5.285073538312E-17  3.393771494641E-17
  2.168351791525E-17  1.378371414532E-17  8.716971204187E-18  5.484044274089E-18
  3.431982819097E-18  2.136340950773E-18  1.322663889141E-18  8.144299310698E-19
  4.987176508980E-19  3.036852351308E-19  1.838786605326E-19  1.107001315159E-19
  6.625889177350E-20  3.942658206950E-20  2.332127810190E-20  1.371206163002E-20
  8.013253322086E-21  4.654132254830E-21  2.686335539086E-21  0.000000000000E+00
  0.000000000000E+00  0.000000000000E+00  0.000000000000E+00  0.000000000000E+00
  0.000000000000E+00  0.000000000000E+00  0.000000000000E+00  0.000000000000E+00
  0.000000000000E+00  0.000000000000E+00  0.000000000000E+00  0.000000000000E+00
  0.000000000000E+00  0.000000000000E+00  0.000000000000E+00  0.000000000000E+00
  0.000000000000E+00  0.000000000000E+00  0.000000000000E+00  0.000000000000E+00
  0.000000000000E+00
</data>
</radfunc>
</valence-charge>
<pseudocore-charge matching-radius="0.792441509834"
 number-of-continuous-derivatives="4">
<annotation model-charge-form="Teter function with specified parameters" />
<radfunc>
<data npts="275">
  9.874919414258E+01  9.874247028415E+01  9.872237057031E+01  9.868883787313E+01
  9.864221701840E+01  9.858091742997E+01  9.850279495617E+01  9.841334213848E+01
  9.830225258363E+01  9.818215552520E+01  9.804679874844E+01  9.789969105235E+01
  9.772192503365E+01  9.753629257694E+01  9.735087690930E+01  9.713733692368E+01
  9.689147933420E+01  9.665847182396E+01  9.639657279952E+01  9.610228940615E+01
  9.577173057821E+01  9.547827241474E+01  9.515640286361E+01  9.480347812183E+01
  9.441663079095E+01  9.399275576375E+01  9.352849631703E+01  9.315163108846E+01
  9.274838830346E+01  9.231704767382E+01  9.185579607986E+01  9.136272565773E+01
  9.083583242268E+01  9.027301555215E+01  8.967207747061E+01  8.903072489754E+01
  8.834657104086E+01  8.761713914112E+01  8.710443504564E+01  8.656969192215E+01
  8.601211691783E+01  8.543090424252E+01  8.482523673515E+01  8.419428767206E+01
  8.353722283793E+01  8.285320288100E+01  8.214138597533E+01  8.140093081315E+01
  8.063099995158E+01  7.983076353762E+01  7.899940343627E+01  7.813611778602E+01
  7.724012600574E+01  7.631067427620E+01  7.534704151809E+01  7.434854588674E+01
  7.331455180107E+01  7.224447752150E+01  7.113780328718E+01  6.999408001839E+01
  6.881293858395E+01  6.759409962620E+01  6.633738392831E+01  6.504272329851E+01
  6.371017193520E+01  6.233991822362E+01  6.093229690096E+01  6.021462106939E+01
  5.948780151032E+01  5.875192680504E+01  5.800709704599E+01  5.725342423396E+01
  5.649103267308E+01  5.572005936244E+01  5.494065438278E+01  5.415298127684E+01
  5.335721742170E+01  5.255355439151E+01  5.174219830867E+01  5.092337018159E+01
  5.009730622703E+01  4.926425817486E+01  4.842449355299E+01  4.757829595013E+01
  4.672596525390E+01  4.586781786185E+01  4.500418686256E+01  4.413542218422E+01
  4.326189070780E+01  4.238397634192E+01  4.150208005642E+01  4.061661987164E+01
  3.972803080021E+01  3.883676473840E+01  3.794329030362E+01  3.704809261528E+01
  3.615167301543E+01  3.525454872646E+01  3.435725244256E+01  3.346033185208E+01
  3.256434908783E+01  3.166988010268E+01  3.077751396781E+01  2.988785209127E+01
  2.900150735465E+01  2.811910316607E+01  2.724127242782E+01  2.636865641747E+01
  2.550190358160E+01  2.464166824175E+01  2.378860921259E+01  2.294338833298E+01
  2.210666891100E+01  2.127911408474E+01  2.046138510121E+01  1.965413951657E+01
  1.885802932141E+01  1.807369899577E+01  1.730178349941E+01  1.654290620348E+01
  1.579767677087E+01  1.506668899333E+01  1.435051859426E+01  1.364972100720E+01
  1.296482914087E+01  1.229635114244E+01  1.164476817186E+01  1.101053220074E+01
  1.039406385011E+01  9.795750282401E+00  9.215943163322E+00  8.654956710282E+00
  8.113065844268E+00  7.590504462636E+00  7.087463850464E+00  6.604091248250E+00
  6.140488593680E+00  5.696711454930E+00  5.272768172524E+00  4.868619226115E+00
  4.484176841631E+00  4.119304853100E+00  3.773818832083E+00  3.447486495964E+00
  3.140028404449E+00  2.851118951436E+00  2.580387656972E+00  2.327420761345E+00
  2.091763120412E+00  1.872920398141E+00  1.670361549024E+00  1.483521579505E+00
  1.311804574019E+00  1.154586967510E+00  1.011221042643E+00  8.810386262468E-01
  7.633549559580E-01  6.574726846729E-01  5.626859872196E-01  4.782847308469E-01
  4.035586686619E-01  3.378016131580E-01  2.803155455297E-01  2.304146156289E-01
  1.874289872530E-01  1.507084840263E-01  1.196259924771E-01  9.358058107409E-02
  7.200029696369E-02  5.434460596629E-02  4.010644600178E-02  2.881386949957E-02
  2.003125642942E-02  1.336008628281E-02  8.439264528614E-03  4.945006624931E-03
  2.590290437094E-03  1.123895713562E-03  3.290569177511E-04  2.176300303846E-05
  4.874444413548E-05  2.851937949159E-04  6.322710328744E-04  1.014448791266E-03
  1.376755112604E-03  1.681972453792E-03  1.907851244846E-03  2.044394306668E-03
  2.091264877118E-03  2.055365942528E-03  1.948632145897E-03  1.786067922859E-03
  1.584056936976E-03  1.358958631017E-03  1.125998105589E-03  8.984459351379E-04
  6.870753033734E-04  4.998753543213E-04  3.419922611401E-04  2.158635251713E-04
  1.215066893743E-04  5.692116809986E-05  1.856135736209E-05  1.840597896329E-06
  1.628816628502E-06  1.271156825136E-05  3.018443997020E-05  4.976399035286E-05
  6.800412742892E-05  8.241461589603E-05  9.148575708293E-05  9.462975379965E-05
  9.205446091923E-05  8.458882752796E-05  7.348116982048E-05  6.019142155204E-05
  4.619677856256E-05  3.282691167489E-05  2.114051660171E-05  1.184984364194E-05
  5.294504136819E-06  1.460796864205E-06  3.851085264702E-08  5.040323559316E-07
  2.216878714977E-06  4.516611781687E-06  6.808391322952E-06  8.627993305323E-06
  9.680577932099E-06  9.851387727130E-06  9.190383211296E-06  7.876098467786E-06
  6.166318882835E-06  4.344282549179E-06  2.668892824303E-06  1.335997726712E-06
  4.554127229647E-07  4.544326731611E-08  0.000000000000E+00  0.000000000000E+00
  0.000000000000E+00  0.000000000000E+00  0.000000000000E+00  0.000000000000E+00
  0.000000000000E+00  0.000000000000E+00  0.000000000000E+00  0.000000000000E+00
  0.000000000000E+00  0.000000000000E+00  0.000000000000E+00  0.000000000000E+00
  0.000000000000E+00  0.000000000000E+00  0.000000000000E+00  0.000000000000E+00
  0.000000000000E+00  0.000000000000E+00  0.000000000000E+00  0.000000000000E+00
  0.000000000000E+00  0.000000000000E+00  0.000000000000E+00  0.000000000000E+00
  0.000000000000E+00  0.000000000000E+00  0.000000000000E+00  0.000000000000E+00
  0.000000000000E+00  0.000000000000E+00  0.000000000000E+00  0.000000000000E+00
  0.000000000000E+00  0.000000000000E+00  0.000000000000E+00
</data>
</radfunc>
</pseudocore-charge>
<semilocal-potentials set="scalar_relativistic">
<slps n="5" l="s" rc="1.45604016253" eref="-3.98500409600">
<radfunc>
<data npts="275">
 -6.345868040728E+00 -6.349474276274E+00 -6.360249080630E+00 -6.378207132234E+00
 -6.403137612711E+00 -6.435852581633E+00 -6.477439152845E+00 -6.524911028771E+00
 -6.583649226776E+00 -6.646882265638E+00 -6.717818343796E+00 -6.794517150730E+00
 -6.886655157911E+00 -6.982238930309E+00 -7.077073077481E+00 -7.185509724849E+00
 -7.309331729780E+00 -7.425680567549E+00 -7.555307078674E+00 -7.699530500839E+00
 -7.859751773544E+00 -8.000436044761E+00 -8.153085694901E+00 -8.318504757079E+00
 -8.497510183989E+00 -8.690923184354E+00 -8.899558690424E+00 -9.066505103119E+00
 -9.242786896073E+00 -9.428713794861E+00 -9.624576671507E+00 -9.830642802714E+00
 -1.004715074727E+01 -1.027430486661E+01 -1.051226952390E+01 -1.076116300970E+01
 -1.102105125513E+01 -1.129194140734E+01 -1.147862119582E+01 -1.167013171158E+01
 -1.186642330399E+01 -1.206743051891E+01 -1.227307131706E+01 -1.248324632834E+01
 -1.269783814933E+01 -1.291671069179E+01 -1.313970858941E+01 -1.336665666973E+01
 -1.359735949816E+01 -1.383160099989E+01 -1.406914416510E+01 -1.430973084207E+01
 -1.455308162152E+01 -1.479889581449E+01 -1.504685152510E+01 -1.529660581771E+01
 -1.554779497722E+01 -1.580003485920E+01 -1.605292132585E+01 -1.630603076179E+01
 -1.655892066276E+01 -1.681113028923E+01 -1.706218137554E+01 -1.731157888483E+01
 -1.755881179916E+01 -1.780335393417E+01 -1.804466476746E+01 -1.816393581696E+01
 -1.828219027047E+01 -1.839935689958E+01 -1.851536373419E+01 -1.863013808744E+01
 -1.874360658017E+01 -1.885569516501E+01 -1.896632914999E+01 -1.907543322170E+01
 -1.918293146795E+01 -1.928874740000E+01 -1.939280397424E+01 -1.949502361359E+01
 -1.959532822832E+01 -1.969363923672E+01 -1.978987758537E+01 -1.988396376929E+01
 -1.997581785197E+01 -2.006535948547E+01 -2.015250793060E+01 -2.023718207748E+01
 -2.031930046652E+01 -2.039878131003E+01 -2.047554251468E+01 -2.054950170500E+01
 -2.062057624814E+01 -2.068868328011E+01 -2.075373973387E+01 -2.081566236933E+01
 -2.087436780579E+01 -2.092977255693E+01 -2.098179306874E+01 -2.103034576073E+01
 -2.107534707073E+01 -2.111671350356E+01 -2.115436168406E+01 -2.118820841469E+01
 -2.121817073821E+01 -2.124416600559E+01 -2.126611194980E+01 -2.128392676553E+01
 -2.129752919547E+01 -2.130683862337E+01 -2.131177517417E+01 -2.131225982176E+01
 -2.130821450443E+01 -2.129956224862E+01 -2.128622730102E+01 -2.126813526954E+01
 -2.124521327337E+01 -2.121739010243E+01 -2.118459638658E+01 -2.114676477486E+01
 -2.110383012511E+01 -2.105572970442E+01 -2.100240340068E+01 -2.094379394591E+01
 -2.087984715173E+01 -2.081051215774E+01 -2.073574169367E+01 -2.065549235613E+01
 -2.056972490120E+01 -2.047840455434E+01 -2.038150133932E+01 -2.027899042824E+01
 -2.017085251530E+01 -2.005707421734E+01 -1.993764850488E+01 -1.981257516817E+01
 -1.968186132350E+01 -1.954552196617E+01 -1.940358057759E+01 -1.925606979538E+01
 -1.910303215691E+01 -1.894452092841E+01 -1.878060103395E+01 -1.861135010065E+01
 -1.843685963926E+01 -1.825723638175E+01 -1.807260380093E+01 -1.788310384010E+01
 -1.768889888430E+01 -1.749017400831E+01 -1.728713953985E+01 -1.708003397990E+01
 -1.686912732459E+01 -1.665472483534E+01 -1.643717130430E+01 -1.621685586154E+01
 -1.599421736643E+01 -1.576975041918E+01 -1.554401201728E+01 -1.531762886550E+01
 -1.509130532496E+01 -1.486583195699E+01 -1.464209457806E+01 -1.442108369430E+01