<?xml version="1.0" encoding="UTF-8" ?>
<psml version="1.1" energy_unit="hartree" length_unit="bohr"
 uuid="846a0780-1d5f-11e8-6491-0340e74f8248"
 xmlns="http://esl.cecam.org/PSML/ns/1.1">
<provenance creator="ONCVPSP-3.3.0+psml-3.3.0-73 (scalar-relativistic)"
 date="2018-03-01">
<annotation action="semilocal-pseudopotential-generation"
 action-cont="projectors-generation" />
<input-file name="oncvpsp-input">
<![CDATA[# atsym z nc nv iexc psfile
P 15 3 2 -116133 upf
# n l f
1 0 2.0
2 0 2.0
2 1 6.0
3 0 2.0
3 1 3.0
# lmax
2
# l rc ep ncon nbas qcut
0 1.45 0.0 4 9 6.2
1 1.55 0.0 4 9 6.6
2 1.7 0.05 4 9 6.6
# lloc lpopt rc5 dvloc0
4 5 1.45 0.0
# l nproj debl
0 2 3.0
1 2 2.5
2 2 2.0
# icmod fcfact rcfact
3 5.0 1.1
# epsh1 epsh2 depsh
-12.0 12.0 0.02
# rlmax drl
6.0 0.01
 0
]]>
</input-file>
</provenance>
<pseudo-atom-spec atomic-label="P" atomic-number="15" z-pseudo="5"
 flavor="Hamann&apos;s oncvpsp" relativity="scalar" spin-dft="no"
 core-corrections="yes">
<annotation pseudo-energy="-6.40203240708" />
<exchange-correlation>
<annotation oncvpsp-xc-code="-116133" oncvpsp-xc-type="libxc-interface" />
<libxc-info number-of-functionals="2">
<functional name="Perdew, Burke &amp; Ernzerhof SOL (GGA)" type="exchange"
 id="116" />
<functional name="Perdew, Burke &amp; Ernzerhof SOL (GGA)" type="correlation"
 id="133" />
</libxc-info>
</exchange-correlation>
<valence-configuration total-valence-charge="5">
<shell n="3" l="s" occupation="2" />
<shell n="3" l="p" occupation="3" />
</valence-configuration>
</pseudo-atom-spec>
<grid npts="457">
<annotation type="sampled from oncvpsp log grid"
 recipe="r(i:1..N) = r1*exp(a*(i-1)) + r=0; resampled"
 recipe-cont="r1: scale; a: step" scale="0.333333333333E-04"
 step="0.119285708653E-01" delta="0.500000000000E-02" rmax="44.2837637062" />
<grid-data>
  0.000000000000E+00  5.056785236402E-03  1.010053166746E-02  1.515240813643E-02
  2.017501934448E-02  2.530717669722E-02  3.062893508784E-02  3.576667430480E-02
  4.078159407628E-02  4.594828673528E-02  5.115568860978E-02  5.627791965710E-02
  6.191304089543E-02  6.730475112585E-02  7.316599957938E-02  7.859454159214E-02
  8.442585358759E-02  8.961444568504E-02  9.512191507908E-02  1.009678591341E-01
  1.071730796174E-01  1.124107279825E-01  1.179043451086E-01  1.236664404276E-01
  1.297101347195E-01  1.360491899885E-01  1.426980408012E-01  1.478970624059E-01
  1.532855037496E-01  1.588702660996E-01  1.646585021619E-01  1.706576252426E-01
  1.768753187418E-01  1.833195459948E-01  1.899985604706E-01  1.969209163432E-01
  2.040954794468E-01  2.115314386309E-01  2.166386536853E-01  2.218691773398E-01
  2.272259867575E-01  2.327121309818E-01  2.383307326722E-01  2.440849898819E-01
  2.499781778776E-01  2.560136510042E-01  2.621948445941E-01  2.685252769220E-01
  2.750085512080E-01  2.816483576683E-01  2.884484756159E-01  2.954127756112E-01
  3.025452216655E-01  3.098498734974E-01  3.173308888431E-01  3.249925258234E-01
  3.328391453668E-01  3.408752136926E-01  3.491053048520E-01  3.575341033323E-01
  3.661664067232E-01  3.750071284471E-01  3.840613005563E-01  3.933340765969E-01
  4.028307345423E-01  4.125566797971E-01  4.225174482741E-01  4.275876576534E-01
  4.327187095452E-01  4.379113340598E-01  4.431662700685E-01  4.484842653093E-01
  4.538660764930E-01  4.593124694110E-01  4.648242190439E-01  4.704021096724E-01
  4.760469349885E-01  4.817594982083E-01  4.875406121868E-01  4.933910995331E-01
  4.993117927275E-01  5.053035342402E-01  5.113671766511E-01  5.175035827709E-01
  5.237136257642E-01  5.299981892733E-01  5.363581675446E-01  5.427944655551E-01
  5.493079991418E-01  5.558996951315E-01  5.625704914731E-01  5.693213373708E-01
  5.761531934192E-01  5.830670317402E-01  5.900638361211E-01  5.971446021546E-01
  6.043103373804E-01  6.115620614290E-01  6.189008061661E-01  6.263276158401E-01
  6.338435472302E-01  6.414496697970E-01  6.491470658345E-01  6.569368306246E-01
  6.648200725921E-01  6.727979134632E-01  6.808714884247E-01  6.890419462858E-01
  6.973104496412E-01  7.056781750369E-01  7.141463131374E-01  7.227160688950E-01
  7.313886617218E-01  7.401653256624E-01  7.490473095704E-01  7.580358772852E-01
  7.671323078126E-01  7.763378955064E-01  7.856539502525E-01  7.950817976555E-01
  8.046227792274E-01  8.142782525781E-01  8.240495916090E-01  8.339381867083E-01
  8.439454449488E-01  8.540727902882E-01  8.643216637717E-01  8.746935237370E-01
  8.851898460218E-01  8.958121241741E-01  9.065618696641E-01  9.174406121001E-01
  9.284498994453E-01  9.395912982387E-01  9.508663938175E-01  9.622767905433E-01
  9.738241120299E-01  9.855100013742E-01  9.973361213907E-01  1.009304154847E+00
  1.021415804706E+00  1.033672794362E+00  1.046076867894E+00  1.058629790309E+00
  1.071333347793E+00  1.084189347966E+00  1.097199620142E+00  1.110366015584E+00
  1.123690407771E+00  1.137174692664E+00  1.150820788976E+00  1.164630638444E+00
  1.178606206105E+00  1.192749480578E+00  1.207062474345E+00  1.221547224037E+00
  1.236205790726E+00  1.251040260214E+00  1.266052743337E+00  1.281245376257E+00
  1.296620320772E+00  1.312179764621E+00  1.327925921797E+00  1.343861032858E+00
  1.359987365253E+00  1.376307213636E+00  1.392822900199E+00  1.409536775002E+00
  1.426451216302E+00  1.443568630897E+00  1.460891454468E+00  1.478422151922E+00
  1.496163217745E+00  1.514117176358E+00  1.532286582474E+00  1.550674021464E+00
  1.569282109721E+00  1.588113495038E+00  1.607170856978E+00  1.626456907262E+00
  1.645974390149E+00  1.665726082831E+00  1.685714795825E+00  1.705943373375E+00
  1.726414693855E+00  1.747131670182E+00  1.768097250224E+00  1.789314417227E+00
  1.810786190233E+00  1.832515624516E+00  1.854505812010E+00  1.876759881754E+00
  1.899281000335E+00  1.922072372339E+00  1.945137240808E+00  1.968478887697E+00
  1.992100634350E+00  2.016005841962E+00  2.040197912065E+00  2.064680287010E+00
  2.089456450454E+00  2.114529927860E+00  2.139904286994E+00  2.165583138438E+00
  2.191570136099E+00  2.217868977732E+00  2.244483405465E+00  2.271417206331E+00
  2.298674212807E+00  2.326258303360E+00  2.354173403001E+00  2.382423483837E+00
  2.411012565643E+00  2.439944716430E+00  2.469224053028E+00  2.498854741664E+00
  2.528840998564E+00  2.559187090547E+00  2.589897335633E+00  2.620976103661E+00
  2.652427816905E+00  2.684256950708E+00  2.716468034116E+00  2.749065650526E+00
  2.782054438332E+00  2.815439091592E+00  2.849224360691E+00  2.883415053019E+00
  2.918016033655E+00  2.953032226059E+00  2.988468612772E+00  3.024330236125E+00
  3.060622198959E+00  3.097349665346E+00  3.134517861330E+00  3.172132075666E+00
  3.210197660574E+00  3.248720032501E+00  3.287704672891E+00  3.327157128966E+00
  3.367083014514E+00  3.407488010688E+00  3.448377866816E+00  3.489758401218E+00
  3.531635502032E+00  3.574015128057E+00  3.616903309594E+00  3.660306149309E+00
  3.704229823100E+00  3.748680580978E+00  3.793664747949E+00  3.839188724925E+00
  3.885258989624E+00  3.931882097499E+00  3.979064682669E+00  4.026813458861E+00
  4.075135220368E+00  4.124036843012E+00  4.173525285128E+00  4.223607588550E+00
  4.274290879612E+00  4.325582370168E+00  4.377489358610E+00  4.430019230913E+00
  4.483179461684E+00  4.536977615224E+00  4.591421346607E+00  4.646518402766E+00
  4.702276623599E+00  4.758703943083E+00  4.815808390400E+00  4.873598091084E+00
  4.932081268177E+00  4.991266243395E+00  5.051161438316E+00  5.111775375576E+00
  5.173116680083E+00  5.235194080244E+00  5.298016409207E+00  5.361592606117E+00
  5.425931717391E+00  5.491042897999E+00  5.556935412775E+00  5.623618637729E+00
  5.691102061381E+00  5.759395286118E+00  5.828508029551E+00  5.898450125906E+00
  5.969231527417E+00  6.040862305746E+00  6.113352653415E+00  6.186712885256E+00
  6.260953439879E+00  6.336084881157E+00  6.412117899731E+00  6.489063314528E+00
  6.566932074303E+00  6.645735259194E+00  6.725484082304E+00  6.806189891292E+00
  6.887864169988E+00  6.970518540027E+00  7.054164762508E+00  7.138814739658E+00
  7.224480516534E+00  7.311174282732E+00  7.398908374125E+00  7.487695274614E+00
  7.577547617910E+00  7.668478189325E+00  7.760499927597E+00  7.853625926728E+00
  7.947869437849E+00  8.043243871103E+00  8.139762797556E+00  8.237439951127E+00
  8.336289230540E+00  8.436324701307E+00  8.537560597722E+00  8.640011324895E+00
  8.743691460794E+00  8.848615758323E+00  8.954799147423E+00  9.062256737192E+00
  9.171003818039E+00  9.281055863855E+00  9.392428534221E+00  9.505137676632E+00
  9.619199328751E+00  9.734629720697E+00  9.851445277345E+00  9.969662620673E+00
  1.008929857212E+01  1.021037015499E+01  1.033289459685E+01  1.045688933201E+01
  1.058237200399E+01  1.070936046804E+01  1.083787279366E+01  1.096792726718E+01
  1.109954239439E+01  1.123273690312E+01  1.136752974596E+01  1.150394010291E+01
  1.164198738414E+01  1.178169123275E+01  1.192307152755E+01  1.206614838588E+01
  1.221094216651E+01  1.235747347251E+01  1.250576315418E+01  1.265583231203E+01
  1.280770229977E+01  1.296139472737E+01  1.311693146410E+01  1.327433464166E+01
  1.343362665736E+01  1.359483017725E+01  1.375796813938E+01  1.392306375705E+01
  1.409014052214E+01  1.425922220840E+01  1.443033287490E+01  1.460349686940E+01
  1.477873883184E+01  1.495608369782E+01  1.513555670219E+01  1.531718338262E+01
  1.550098958321E+01  1.568700145821E+01  1.587524547571E+01  1.606574842141E+01
  1.625853740247E+01  1.645363985130E+01  1.665108352952E+01  1.685089653187E+01
  1.705310729025E+01  1.725774457774E+01  1.746483751267E+01  1.767441556282E+01
  1.788650854958E+01  1.810114665217E+01  1.831836041200E+01  1.853818073694E+01
  1.876063890578E+01  1.898576657265E+01  1.921359577152E+01  1.944415892078E+01
  1.967748882783E+01  1.991361869377E+01  2.015258211809E+01  2.039441310351E+01
  2.063914606075E+01  2.088681581348E+01  2.113745760324E+01  2.139110709448E+01
  2.164780037961E+01  2.190757398417E+01  2.217046487198E+01  2.243651045044E+01
  2.270574857585E+01  2.297821755876E+01  2.325395616946E+01  2.353300364350E+01
  2.381539968722E+01  2.410118448347E+01  2.439039869727E+01  2.468308348163E+01
  2.497928048341E+01  2.527903184922E+01  2.558238023141E+01  2.588936879418E+01
  2.620004121971E+01  2.651444171435E+01  2.683261501492E+01  2.715460639510E+01
  2.748046167184E+01  2.781022721190E+01  2.814394993845E+01  2.848167733771E+01
  2.882345746576E+01  2.916933895535E+01  2.951937102281E+01  2.987360347509E+01
  3.023208671679E+01  3.059487175739E+01  3.096201021848E+01  3.133355434110E+01
  3.170955699319E+01  3.209007167711E+01  3.247515253724E+01  3.286485436768E+01
  3.325923262010E+01  3.365834341154E+01  3.406224353248E+01  3.447099045487E+01
  3.488464234032E+01  3.530325804841E+01  3.572689714499E+01  3.615561991073E+01
  3.658948734966E+01  3.702856119785E+01  3.747290393223E+01  3.792257877942E+01
  3.837764972477E+01  3.883818152147E+01  3.930423969972E+01  3.977589057612E+01
  4.025320126303E+01  4.073623967819E+01  4.122507455433E+01  4.171977544898E+01
  4.222041275437E+01  4.272705770742E+01  4.323978239991E+01  4.375865978871E+01
  4.428376370617E+01
</grid-data>
</grid>
<valence-charge total-charge="5" is-unscreening-charge="yes"
 rescaled-to-z-pseudo="no">
<radfunc>
<data npts="457">
  1.474793185087E-02  1.477713676146E-02  1.486446011307E-02  1.501021258973E-02
  1.521299817677E-02  1.547988748357E-02  1.582044331122E-02  1.621097320332E-02
  1.665080323411E-02  1.716468121771E-02  1.774516119201E-02  1.837761240328E-02
  1.914407190551E-02  1.994703057607E-02  2.089749666071E-02  2.185024467087E-02
  2.295172953890E-02  2.400016097025E-02  2.518387145836E-02  2.652066138520E-02
  2.803076431861E-02  2.937899919092E-02  3.086606904965E-02  3.250668022512E-02
  3.431717877202E-02  3.631574851940E-02  3.852263539145E-02  4.032798627316E-02
  4.227361882124E-02  4.437089784470E-02  4.663217138542E-02  4.907086267223E-02
  5.170157098995E-02  5.454018219347E-02  5.760398959021E-02  6.091182587995E-02
  6.448420676885E-02  6.834348675214E-02  7.108767088487E-02  7.397789872326E-02
  7.702237799498E-02  8.022979971503E-02  8.360936534403E-02  8.717081482080E-02
  9.092445534339E-02  9.488119073508E-02  9.905255118801E-02  1.034507231271E-01
  1.080885788802E-01  1.129797057767E-01  1.181384342258E-01  1.235798642488E-01
  1.293198898537E-01  1.353752205515E-01  1.417633992161E-01  1.485028153917E-01
  1.556127130501E-01  1.631131916981E-01  1.710251996410E-01  1.793705181157E-01
  1.881717349298E-01  1.974522061801E-01  2.072360045827E-01  2.175478529251E-01
  2.284130411704E-01  2.398573257783E-01  2.519068098947E-01  2.581667197352E-01
  2.645878031630E-01  2.711733546276E-01  2.779266600560E-01  2.848509905606E-01
  2.919495957793E-01  2.992256968421E-01  3.066824789605E-01  3.143230836361E-01
  3.221506004828E-01  3.301680586617E-01  3.383784179210E-01  3.467845592385E-01
  3.553892750595E-01  3.641952591229E-01  3.732050958670E-01  3.824212494018E-01
  3.918460520358E-01  4.014816923367E-01  4.113302027061E-01  4.213934464410E-01
  4.316731042500E-01  4.421706601870E-01  4.528873869577E-01  4.638243305502E-01
  4.749822941281E-01  4.863618211246E-01  4.979631774624E-01  5.097863328191E-01
  5.218309408535E-01  5.340963182969E-01  5.465814228130E-01  5.592848295258E-01
  5.722047061106E-01  5.853387863494E-01  5.986843420525E-01  6.122381532588E-01
  6.259964766385E-01  6.399550120416E-01  6.541088671594E-01  6.684525202941E-01
  6.829797812737E-01  6.976837505904E-01  7.125567768979E-01  7.275904130608E-01
  7.427753710244E-01  7.581014758466E-01  7.735576193243E-01  7.891317137350E-01
  8.048106463180E-01  8.205802352150E-01  8.364251877010E-01  8.523290616303E-01
  8.682742311261E-01  8.842418576259E-01  9.002118674719E-01  9.161629372903E-01
  9.320724884377E-01  9.479166917935E-01  9.636704841471E-01  9.793075973543E-01
  9.948006013195E-01  1.010120961690E+00  1.025239112925E+00  1.040124547129E+00
  1.054745918696E+00  1.069071164433E+00  1.083067638394E+00  1.096702260183E+00
  1.109941674978E+00  1.122752423035E+00  1.135101115894E+00  1.146954616068E+00
  1.158280216565E+00  1.169045816236E+00  1.179220086778E+00  1.188772627083E+00
  1.197674100787E+00  1.205896353126E+00  1.213412503786E+00  1.220197013157E+00
  1.226225720458E+00  1.231475853420E+00  1.235926010729E+00  1.239556120053E+00
  1.242347376284E+00  1.244282166499E+00  1.245343989912E+00  1.245517382821E+00
  1.244787859950E+00  1.243141884629E+00  1.240566880762E+00  1.237051299393E+00
  1.232584751754E+00  1.227158218881E+00  1.220764345185E+00  1.213397819692E+00
  1.205055844125E+00  1.195738681719E+00  1.185450274766E+00  1.174198912794E+00
  1.161997927205E+00  1.148866382688E+00  1.134829731203E+00  1.119920065425E+00
  1.104174906552E+00  1.087635126901E+00  1.070344790572E+00  1.052351784125E+00
  1.033707453159E+00  1.014465247263E+00  9.946785962971E-01  9.744003933510E-01
  9.536832095604E-01  9.325789715245E-01  9.111388466351E-01  8.894131037428E-01
  8.674509846342E-01  8.453005836122E-01  8.230087354371E-01  8.006209118864E-01
  7.781811271420E-01  7.557318521644E-01  7.333139381616E-01  7.109665492114E-01
  6.887271040376E-01  6.666312268931E-01  6.447127074471E-01  6.230034695258E-01
  6.015335485094E-01  5.803310771424E-01  5.594222794763E-01  5.388314726229E-01
  5.185810759698E-01  4.986916274730E-01  4.791818066257E-01  4.600684636737E-01
  4.413666546386E-01  4.230896816920E-01  4.052491384205E-01  3.878549595124E-01
  3.709154743988E-01  3.544374643832E-01  3.384262227992E-01  3.228856177418E-01
  3.078181569417E-01  2.932250543142E-01  2.791062978431E-01  2.654607183329E-01
  2.522860586853E-01  2.395790433366E-01  2.273354475195E-01  2.155501660342E-01
  2.042172812369E-01  1.933301299777E-01  1.828813692407E-01  1.728630402645E-01
  1.632666309443E-01  1.540831363381E-01  1.453031171246E-01  1.369167558799E-01
  1.289139110632E-01  1.212841686212E-01  1.140168911472E-01  1.071012645334E-01
  1.005263420938E-01  9.428108613847E-02  8.835440700077E-02  8.273519953271E-02
  7.741237709854E-02  7.237490310777E-02  6.761182014059E-02  6.311227672824E-02
  5.886555185919E-02  5.486107728845E-02  5.108845773332E-02  4.753748904219E-02
  4.419817442604E-02  4.106073884323E-02  3.811564162839E-02  3.535358745499E-02
  3.276553571968E-02  3.034270843329E-02  2.807659670098E-02  2.595896587003E-02
  2.398185942080E-02  2.213760167268E-02  2.041879937402E-02  1.881834224208E-02
  1.732940251682E-02  1.594543359067E-02  1.466016777490E-02  1.346761326244E-02
  1.236205034646E-02  1.133802695388E-02  1.039035355266E-02  9.514097492160E-03
  8.704576835272E-03  7.957353741354E-03  7.268227458219E-03  6.633226980881E-03
  6.048603433641E-03  5.510822230692E-03  5.016555068585E-03  4.562671801747E-03
  4.146232249710E-03  3.764477981892E-03  3.414824122702E-03  3.094851216434E-03
  2.802297188008E-03  2.535049432051E-03  2.291137059255E-03  2.068723325375E-03
  1.866098264688E-03  1.681671546339E-03  1.513965568689E-03  1.361608803618E-03
  1.223329399817E-03  1.097949051310E-03  9.843771349373E-04  8.816051181871E-04
  7.887012367006E-04  7.048054389258E-04  6.291245937707E-04  5.609279557276E-04
  4.995428807744E-04  4.443507854063E-04  3.947833403972E-04  3.503188903269E-04
  3.104790895107E-04  2.748257447286E-04  2.429578550441E-04  2.145088390131E-04
  1.891439396959E-04  1.665577980795E-04  1.464721857731E-04  1.286338881515E-04
  1.128127294646E-04  9.879973179429E-05  8.640540012485E-05  7.545812617058E-05
  6.580270398319E-05  5.729895072976E-05  4.982042638488E-05  4.325324641760E-05
  3.749498187176E-05  3.245364153747E-05  2.804673119151E-05  2.420038514613E-05
  2.084856559046E-05  1.793232543750E-05  1.539913060466E-05  1.320223785767E-05
  1.130012453903E-05  9.655966683580E-06  8.237162197178E-06  7.014895940287E-06
  5.963743718549E-06  5.061312336640E-06  4.287913021522E-06  3.626265666470E-06
  3.061231488540E-06  2.579571829461E-06  2.169730963524E-06  1.821640905777E-06
  1.526546339696E-06  1.276847905428E-06  1.065962207455E-06  8.881970140969E-07
  7.386402304028E-07  6.130613305730E-07  5.078240360398E-07  4.198091205345E-07
  3.463463138784E-07  2.851543617900E-07  2.342883796970E-07  1.920937144019E-07
  1.571655985276E-07  1.283139490441E-07  1.045327229513E-07  8.497330050021E-08
  6.892141932061E-08  5.577723165355E-08  4.503810174322E-08  3.628380151435E-08
  2.916380014843E-08  2.338637727713E-08  1.870932044343E-08  1.493199544535E-08
  1.188860338110E-08  9.442460858304E-09  7.481160112261E-09  5.912483887829E-09
  4.660966060401E-09  3.665003277495E-09  2.874435559228E-09  2.248524959266E-09
  1.754271203893E-09  1.365011831705E-09  1.059261876658E-09  8.197546891788E-10
  6.326511811216E-10  4.868897082887E-10  3.736530583161E-10  2.859326726910E-10
  2.181733724440E-10  1.659845431664E-10  1.259060250675E-10  9.521890005361E-11
  7.179301666667E-11  5.396448616593E-11  4.043755517879E-11  3.020624386697E-11
  2.249196112249E-11  1.669399401994E-11  1.235033849259E-11  9.106810014644E-12
  6.692762484192E-12  4.902063819156E-12  3.578239365298E-12  2.602908737474E-12
  1.886816363798E-12  1.362897691924E-12  9.809375617024E-13  7.034695195824E-13
  5.026389112694E-13  3.578118183851E-13  2.537590986689E-13  1.792822539681E-13
  1.261774801876E-13  8.845759831271E-14  6.176988841372E-14  4.296217402933E-14
  2.976066082033E-14  2.053168760861E-14  1.410623431021E-14  9.651176439865E-15
  6.575218322993E-15  4.460450866859E-15  3.012752779052E-15  2.026010307897E-15
  1.356407581034E-15  9.040362926173E-16  5.997980147582E-16  3.961172728963E-16
  2.603861698785E-16  1.703581295092E-16  1.109260891034E-16  7.187950690481E-17
  4.635015663877E-17  2.974032061083E-17  1.898721377690E-17  1.206062715645E-17
  7.621522362534E-18  0.000000000000E+00  0.000000000000E+00  0.000000000000E+00
  0.000000000000E+00  0.000000000000E+00  0.000000000000E+00  0.000000000000E+00
  0.000000000000E+00  0.000000000000E+00  0.000000000000E+00  0.000000000000E+00
  0.000000000000E+00  0.000000000000E+00  0.000000000000E+00  0.000000000000E+00
  0.000000000000E+00  0.000000000000E+00  0.000000000000E+00  0.000000000000E+00
  0.000000000000E+00  0.000000000000E+00  0.000000000000E+00  0.000000000000E+00
  0.000000000000E+00  0.000000000000E+00  0.000000000000E+00  0.000000000000E+00
  0.000000000000E+00  0.000000000000E+00  0.000000000000E+00  0.000000000000E+00
  0.000000000000E+00  0.000000000000E+00  0.000000000000E+00  0.000000000000E+00
  0.000000000000E+00
</data>
</radfunc>
</valence-charge>
<pseudocore-charge matching-radius="1.03367279436"
 number-of-continuous-derivatives="4">
<annotation model-charge-form="Teter function with specified parameters" />
<radfunc>
<data npts="290">
  6.377072888919E+00  6.376674395885E+00  6.375483163221E+00  6.373495767753E+00
  6.370732584877E+00  6.367099251389E+00  6.362468543834E+00  6.357165882889E+00
  6.351203478128E+00  6.344250194715E+00  6.336412423929E+00  6.327893027189E+00
  6.317596462601E+00  6.306842311638E+00  6.294155646672E+00  6.281485129334E+00
  6.266894368102E+00  6.253063577537E+00  6.237514783104E+00  6.220039458769E+00
  6.200405079370E+00  6.182970006670E+00  6.163842187259E+00  6.142863102701E+00
  6.119860612929E+00  6.094648046891E+00  6.067023291665E+00  6.044590953264E+00
  6.020580763733E+00  5.994888619497E+00  5.967404606130E+00  5.938012842455E+00
  5.906591350985E+00  5.873011961507E+00  5.837140255579E+00  5.798835560895E+00
  5.757951005642E+00  5.714333644383E+00  5.683658986609E+00  5.651650839478E+00
  5.618259714926E+00  5.583435142675E+00  5.547125746476E+00  5.509279333709E+00
  5.469842999574E+00  5.428763247161E+00  5.385986124753E+00  5.341457381785E+00
  5.295122644924E+00  5.246927615775E+00  5.196818291779E+00  5.144741211870E+00
  5.090643728468E+00  5.034474307391E+00  4.976182857227E+00  4.915721089641E+00
  4.853042912025E+00  4.788104853750E+00  4.720866527128E+00  4.651291123987E+00
  4.579345948461E+00  4.505002986317E+00  4.428239510702E+00  4.349038723753E+00
  4.267390432954E+00  4.183291760462E+00  4.096747882924E+00  4.052563000613E+00
  4.007772798419E+00  3.962380534043E+00  3.916390116258E+00  3.869806130444E+00
  3.822633864255E+00  3.774879333324E+00  3.726549306960E+00  3.677651333753E+00
  3.628193767002E+00  3.578185789890E+00  3.527637440304E+00  3.476559635203E+00
  3.424964194426E+00  3.372863863833E+00  3.320272337653E+00  3.267204279908E+00
  3.213675344796E+00  3.159702195871E+00  3.105302523891E+00  3.050495063166E+00
  2.995299606252E+00  2.939737016826E+00  2.883829240559E+00  2.827599313816E+00
  2.771071369994E+00  2.714270643311E+00  2.657223469850E+00  2.599957285660E+00
  2.542500621716E+00  2.484883095528E+00  2.427135399207E+00  2.369289283775E+00
  2.311377539520E+00  2.253433972196E+00  2.195493374873E+00  2.137591495243E+00
  2.079764998215E+00  2.022051423597E+00  1.964489138738E+00  1.907117285952E+00
  1.849975724618E+00  1.793104967816E+00  1.736546113428E+00  1.680340769623E+00
  1.624530974682E+00  1.569159111158E+00  1.514267814373E+00  1.459899875315E+00
  1.406098138024E+00  1.352905391590E+00  1.300364256943E+00  1.248517068650E+00
  1.197405751993E+00  1.147071695637E+00  1.097555620279E+00  1.048897443686E+00
  1.001136142628E+00  9.543096122368E-01  9.084545234064E-01  8.636061788931E-01
  8.197983688452E-01  7.770632265440E-01  7.354310852001E-01  6.949303367018E-01
  6.555872932661E-01  6.174260529908E-01  5.804683703489E-01  5.447335327051E-01
  5.102382439645E-01  4.769965164842E-01  4.450195723944E-01  4.143157554762E-01
  3.848904547353E-01  3.567460407909E-01  3.298818161620E-01  3.042939804873E-01
  2.799756116484E-01  2.569166636859E-01  2.351039823034E-01  2.145213386367E-01
  1.951494818396E-01  1.769662108855E-01  1.599464658243E-01  1.440624385485E-01
  1.292837029361E-01  1.155773640220E-01  1.029082256347E-01  9.123897570750E-02
  8.053038823555E-02  7.074154061518E-02  6.183004486128E-02  5.375229096598E-02
  4.646370043488E-02  3.991898782375E-02  3.407242790233E-02  2.887812589783E-02
  2.429028812327E-02  2.026349018149E-02  1.675293985653E-02  1.371473176751E-02
  1.110609086788E-02  8.885601929393E-03  7.013422257945E-03  5.451475048986E-03
  4.163621004399E-03  3.115806099929E-03  2.276183710693E-03  1.615209668540E-03
  1.105709234445E-03  7.229154152774E-04  4.444785294200E-04  2.504474205323E-04
  1.232232226989E-04  4.748708151573E-05  1.010372179166E-05  3.210280711993E-09
  8.043677863253E-06  2.685812671843E-05  5.068874184680E-05  7.521234157250E-05
  9.736072885858E-05  1.151397371054E-04  1.274506959635E-04  1.339178730855E-04
  1.347251786190E-04  1.304650562341E-04  1.220020369551E-04  1.103529131028E-04
  9.658491573111E-05  8.173266955236E-05  6.673407632475E-05  5.238466442297E-05
  3.930936279676E-05  2.795013520307E-05  1.856746724233E-05  1.125335321883E-05
  5.953197027458E-06  2.493930932082E-06  6.156721477006E-07  4.377040887714E-09
  3.232073544062E-07  1.240676527927E-06  2.454075482850E-06  3.707159935546E-06
  4.801585832934E-06  5.602074748150E-06  6.035746385275E-06  6.086442679299E-06
  5.785163989535E-06  5.197925775237E-06  4.412415138403E-06  3.524780883451E-06
  2.627737598632E-06  1.800921645160E-06  1.104130061440E-06  5.737326781728E-07
  2.222061736168E-07  4.042886307368E-08  2.125561557012E-09  6.968516596684E-08
  2.005030089471E-07  3.530284045000E-07  4.918170921526E-07  5.910803319824E-07
  6.364609398623E-07  6.250202767450E-07  5.636565948673E-07  4.663645785304E-07
  3.508655798981E-07  2.351750464968E-07  1.346268498834E-07  5.975454941745E-08
  1.525844239257E-08  9.326237454268E-11  0.000000000000E+00  0.000000000000E+00
  0.000000000000E+00  0.000000000000E+00  0.000000000000E+00  0.000000000000E+00
  0.000000000000E+00  0.000000000000E+00  0.000000000000E+00  0.000000000000E+00
  0.000000000000E+00  0.000000000000E+00  0.000000000000E+00  0.000000000000E+00
  0.000000000000E+00  0.000000000000E+00  0.000000000000E+00  0.000000000000E+00
  0.000000000000E+00  0.000000000000E+00  0.000000000000E+00  0.000000000000E+00
  0.000000000000E+00  0.000000000000E+00  0.000000000000E+00  0.000000000000E+00
  0.000000000000E+00  0.000000000000E+00  0.000000000000E+00  0.000000000000E+00
  0.000000000000E+00  0.000000000000E+00  0.000000000000E+00  0.000000000000E+00
  0.000000000000E+00  0.000000000000E+00  0.000000000000E+00  0.000000000000E+00
  0.000000000000E+00  0.000000000000E+00  0.000000000000E+00  0.000000000000E+00
  0.000000000000E+00  0.000000000000E+00  0.000000000000E+00  0.000000000000E+00
  0.000000000000E+00  0.000000000000E+00
</data>
</radfunc>
</pseudocore-charge>
<semilocal-potentials set="scalar_relativistic">
<slps n="3" l="s" rc="1.46089145447" eref="-0.511448028057">
<radfunc>
<data npts="290">
  3.128637806567E+01  3.127603283003E+01  3.124513482037E+01  3.119367749963E+01
  3.112232294498E+01  3.102883174594E+01  3.091022220854E+01  3.077514644536E+01
  3.062420599918E+01  3.044942602012E+01  3.025400093245E+01  3.004346309313E+01
  2.979158404206E+01  2.953147240247E+01  2.922843460725E+01  2.892982166208E+01
  2.859084318131E+01  2.827424417068E+01  2.792367675107E+01  2.753627221260E+01
  2.710910341450E+01  2.673676204113E+01  2.633560307572E+01  2.590418122742E+01
  2.544111855186E+01  2.494513380037E+01  2.441507495246E+01  2.399456848718E+01
  2.355399222251E+01  2.309307603437E+01  2.261163289941E+01  2.210956865315E+01
  2.158689173041E+01  2.104372273981E+01  2.048030371191E+01  1.989700685098E+01
  1.929434261418E+01  1.867296693843E+01  1.824871366358E+01  1.781677771397E+01
  1.737746837788E+01  1.693112680107E+01  1.647812622376E+01  1.601887206715E+01
  1.555380186038E+01  1.508338499839E+01  1.460812232142E+01  1.412854550654E+01
  1.364521626123E+01  1.315872530857E+01  1.266969115282E+01  1.217875861355E+01
  1.168659711517E+01  1.119389871808E+01  1.070137587623E+01  1.020975890516E+01
  9.719793143582E+00  9.232235791143E+00  8.747852404906E+00  8.267413037835E+00
  7.791688003999E+00  7.321443258013E+00  6.857435380464E+00  6.400406167078E+00
  5.951076827642E+00  5.510141811491E+00  5.078262290130E+00  4.865914185177E+00
  4.656059344670E+00  4.448767984440E+00  4.244106926536E+00  4.042139373685E+00
  3.842924684598E+00  3.646518151408E+00  3.452970780646E+00  3.262329079328E+00
  3.074634847846E+00  2.889924981565E+00  2.708231283152E+00  2.529580287820E+00
  2.353993103880E+00  2.181485271092E+00  2.012066639489E+00  1.845741271495E+00
  1.682507370275E+00  1.522357237348E+00  1.365277262621E+00  1.211247950033E+00
  1.060243982032E+00  9.122343260865E-01  7.671823864165E-01  6.250462039329E-01
  4.857787072796E-01  3.493280176731E-01  2.156378097109E-01  8.464773019025E-02
 -4.370612363548E-02 -1.694906655707E-01 -2.927752215218E-01 -4.136308707208E-01
 -5.321297286276E-01 -6.483441740392E-01 -7.623460240823E-01 -8.742056619841E-01
 -9.839911238973E-01 -1.091767152523E+00 -1.197594226846E+00 -1.301527578952E+00
 -1.403616210628E+00 -1.503901924256E+00 -1.602418384276E+00 -1.699190227313E+00
 -1.794232240805E+00 -1.887548631539E+00 -1.979132406950E+00 -2.068964893139E+00
 -2.157015414309E+00 -2.243241158486E+00 -2.327587253918E+00 -2.409987079202E+00
 -2.490362827858E+00 -2.568626344521E+00 -2.644680245110E+00 -2.718419327131E+00
 -2.789732268621E+00 -2.858503605420E+00 -2.924615966531E+00 -2.987952536862E+00
 -3.048399706110E+00 -3.105849852670E+00 -3.160204203013E+00 -3.211375700560E+00
 -3.259291814394E+00 -3.303897217259E+00 -3.345156264194E+00 -3.383055207123E+00
 -3.417604085822E+00 -3.448838240670E+00 -3.476819396158E+00 -3.501636265324E+00
 -3.523404623773E+00 -3.542266798057E+00 -3.558390508271E+00 -3.571967000731E+00
 -3.583208405966E+00 -3.592344262522E+00 -3.599617160280E+00 -3.605277479609E+00
 -3.609577235107E+00 -3.612763074389E+00 -3.615068531888E+00 -3.616705692657E+00
 -3.617856478869E+00 -3.618663828953E+00 -3.619223092719E+00 -3.619574011866E+00
 -3.619693690636E+00 -3.619490982564E+00 -3.618802723096E+00 -3.617392221206E+00