<?xml version="1.0" encoding="UTF-8" ?>
<psml version="1.1" energy_unit="hartree" length_unit="bohr"
 uuid="7be2e590-1d65-11e8-48b6-92dbff31624d"
 xmlns="http://esl.cecam.org/PSML/ns/1.1">
<provenance creator="ONCVPSP-3.3.0+psml-3.3.0-73 (scalar-relativistic)"
 date="2018-03-01">
<annotation action="semilocal-pseudopotential-generation"
 action-cont="projectors-generation" />
<input-file name="oncvpsp-input">
<![CDATA[# atsym z nc nv iexc psfile
Ga 31 3 5 -116133 upf
# n l f
1 0 2.0
2 0 2.0
2 1 6.0
3 0 2.0
3 1 6.0
3 2 10.0
4 0 2.0
4 1 1.0
# lmax
2
# l rc ep ncon nbas qcut
0 1.2 0.0 4 7 9.4
1 1.3 0.0 4 7 10.6
2 1.5 0.0 4 7 10.6
# lloc lpopt rc5 dvloc0
4 5 1.2 0.0
# l nproj debl
0 2 1.0
1 2 1.0
2 2 3.0
# icmod fcfact rcfact
3 3.0 1.5
# epsh1 epsh2 depsh
-12.0 12.0 0.02
# rlmax drl
6.0 0.01
 0
]]>
</input-file>
</provenance>
<pseudo-atom-spec atomic-label="Ga" atomic-number="31" z-pseudo="21"
 flavor="Hamann&apos;s oncvpsp" relativity="scalar" spin-dft="no"
 core-corrections="yes">
<annotation pseudo-energy="-244.982673932" />
<exchange-correlation>
<annotation oncvpsp-xc-code="-116133" oncvpsp-xc-type="libxc-interface" />
<libxc-info number-of-functionals="2">
<functional name="Perdew, Burke &amp; Ernzerhof SOL (GGA)" type="exchange"
 id="116" />
<functional name="Perdew, Burke &amp; Ernzerhof SOL (GGA)" type="correlation"
 id="133" />
</libxc-info>
</exchange-correlation>
<valence-configuration total-valence-charge="21">
<shell n="3" l="s" occupation="2" />
<shell n="3" l="p" occupation="6" />
<shell n="3" l="d" occupation="10" />
<shell n="4" l="s" occupation="2" />
<shell n="4" l="p" occupation="1" />
</valence-configuration>
</pseudo-atom-spec>
<grid npts="458">
<annotation type="sampled from oncvpsp log grid"
 recipe="r(i:1..N) = r1*exp(a*(i-1)) + r=0; resampled"
 recipe-cont="r1: scale; a: step" scale="0.161290322581E-04"
 step="0.119285708653E-01" delta="0.500000000000E-02" rmax="44.3593682749" />
<grid-data>
  0.000000000000E+00  5.005354308404E-03  1.011777605404E-02  1.517827746610E-02
  2.020946365338E-02  2.535038301076E-02  3.068122710716E-02  3.582773785855E-02
  4.085121947787E-02  4.602673310278E-02  5.124302544502E-02  5.637400155005E-02
  6.201874349076E-02  6.741965885400E-02  7.242185184910E-02  7.779518191586E-02
  8.356718552202E-02  8.870300612650E-02  9.415446082966E-02  9.994094767748E-02
  1.060830568691E-01  1.112674348058E-01  1.167051781279E-01  1.224086690381E-01
  1.283908948690E-01  1.346654776560E-01  1.412467051564E-01  1.463928491930E-01
  1.517264864416E-01  1.572544479790E-01  1.629838137635E-01  1.689219217026E-01
  1.750763770511E-01  1.814550621518E-01  1.880661465305E-01  1.949180973592E-01
  2.020196903006E-01  2.093800207477E-01  2.144352919686E-01  2.196126176579E-01
  2.249149446987E-01  2.303452911235E-01  2.359067478323E-01  2.416024803520E-01
  2.474357306376E-01  2.534098189181E-01  2.595281455861E-01  2.657941931331E-01
  2.722115281321E-01  2.787838032674E-01  2.855147594134E-01  2.924082277647E-01
  2.994681320159E-01  3.066984905953E-01  3.141034189522E-01  3.216871318994E-01
  3.294539460120E-01  3.374082820845E-01  3.455546676471E-01  3.538977395428E-01
  3.624422465663E-01  3.711930521674E-01  3.801551372189E-01  3.893336028520E-01
  3.987336733592E-01  4.083606991688E-01  4.182201598895E-01  4.232388018082E-01
  4.283176674299E-01  4.334574794391E-01  4.386589691923E-01  4.439228768226E-01
  4.492499513445E-01  4.546409507606E-01  4.600966421698E-01  4.656178018758E-01
  4.712052154983E-01  4.768596780843E-01  4.825819942213E-01  4.883729781520E-01
  4.942334538898E-01  5.001642553365E-01  5.061662264005E-01  5.122402211173E-01
  5.183871037707E-01  5.246077490160E-01  5.309030420042E-01  5.372738785082E-01
  5.437211650503E-01  5.502458190309E-01  5.568487688593E-01  5.635309540856E-01
  5.702933255346E-01  5.771368454410E-01  5.840624875863E-01  5.910712374374E-01
  5.981640922866E-01  6.053420613940E-01  6.126061661308E-01  6.199574401243E-01
  6.273969294058E-01  6.349256925587E-01  6.425448008694E-01  6.502553384798E-01
  6.580584025416E-01  6.659551033721E-01  6.739465646126E-01  6.820339233879E-01
  6.902183304686E-01  6.985009504342E-01  7.068829618394E-01  7.153655573815E-01
  7.239499440701E-01  7.326373433989E-01  7.414289915197E-01  7.503261394179E-01
  7.593300530909E-01  7.684420137280E-01  7.776633178928E-01  7.869952777075E-01
  7.964392210400E-01  8.059964916924E-01  8.156684495928E-01  8.254564709879E-01
  8.353619486397E-01  8.453862920234E-01  8.555309275277E-01  8.657972986580E-01
  8.761868662419E-01  8.867011086368E-01  8.973415219405E-01  9.081096202037E-01
  9.190069356462E-01  9.300350188739E-01  9.411954391004E-01  9.524897843696E-01
  9.639196617821E-01  9.754866977235E-01  9.871925380961E-01  9.990388485533E-01
  1.011027314736E+00  1.023159642513E+00  1.035437558223E+00  1.047862808922E+00
  1.060437162629E+00  1.073162408580E+00  1.086040357483E+00  1.099072841773E+00
  1.112261715874E+00  1.125608856465E+00  1.139116162742E+00  1.152785556695E+00
  1.166618983376E+00  1.180618411176E+00  1.194785832110E+00  1.209123262095E+00
  1.223632741241E+00  1.238316334136E+00  1.253176130145E+00  1.268214243707E+00
  1.283432814631E+00  1.298834008407E+00  1.314420016508E+00  1.330193056706E+00
  1.346155373386E+00  1.362309237867E+00  1.378656948721E+00  1.395200832106E+00
  1.411943242091E+00  1.428886560996E+00  1.446033199728E+00  1.463385598125E+00
  1.480946225303E+00  1.498717580006E+00  1.516702190966E+00  1.534902617258E+00
  1.553321448665E+00  1.571961306049E+00  1.590824841722E+00  1.609914739822E+00
  1.629233716700E+00  1.648784521301E+00  1.668569935556E+00  1.688592774783E+00
  1.708855888080E+00  1.729362158737E+00  1.750114504642E+00  1.771115878698E+00
  1.792369269242E+00  1.813877700473E+00  1.835644232879E+00  1.857671963673E+00
  1.879964027237E+00  1.902523595564E+00  1.925353878711E+00  1.948458125255E+00
  1.971839622759E+00  1.995501698232E+00  2.019447718610E+00  2.043681091234E+00
  2.068205264329E+00  2.093023727500E+00  2.118140012230E+00  2.143557692377E+00
  2.169280384686E+00  2.195311749302E+00  2.221655490294E+00  2.248315356177E+00
  2.275295140451E+00  2.302598682137E+00  2.330229866322E+00  2.358192624718E+00
  2.386490936215E+00  2.415128827449E+00  2.444110373379E+00  2.473439697859E+00
  2.503120974234E+00  2.533158425924E+00  2.563556327036E+00  2.594319002960E+00
  2.625450830996E+00  2.656956240967E+00  2.688839715859E+00  2.721105792449E+00
  2.753759061959E+00  2.786804170702E+00  2.820245820751E+00  2.854088770600E+00
  2.888337835847E+00  2.922997889877E+00  2.958073864556E+00  2.993570750930E+00
  3.029493599941E+00  3.065847523141E+00  3.102637693418E+00  3.139869345739E+00
  3.177547777888E+00  3.215678351223E+00  3.254266491438E+00  3.293317689335E+00
  3.332837501607E+00  3.372831551626E+00  3.413305530246E+00  3.454265196609E+00
  3.495716378968E+00  3.537664975516E+00  3.580116955222E+00  3.623078358684E+00
  3.666555298989E+00  3.710553962577E+00  3.755080610127E+00  3.800141577449E+00
  3.845743276378E+00  3.891892195695E+00  3.938594902043E+00  3.985858040868E+00
  4.033688337358E+00  4.082092597406E+00  4.131077708575E+00  4.180650641078E+00
  4.230818448771E+00  4.281588270156E+00  4.332967329398E+00  4.384962937351E+00
  4.437582492599E+00  4.490833482510E+00  4.544723484301E+00  4.599260166112E+00
  4.654451288106E+00  4.710304703563E+00  4.766828360006E+00  4.824030300326E+00
  4.881918663930E+00  4.940501687897E+00  4.999787708151E+00  5.059785160649E+00
  5.120502582577E+00  5.181948613568E+00  5.244131996931E+00  5.307061580894E+00
  5.370746319865E+00  5.435195275703E+00  5.500417619012E+00  5.566422630440E+00
  5.633219702005E+00  5.700818338429E+00  5.769228158490E+00  5.838458896392E+00
  5.908520403149E+00  5.979422647987E+00  6.051175719762E+00  6.123789828400E+00
  6.197275306340E+00  6.271642610016E+00  6.346902321337E+00  6.423065149193E+00
  6.500141930983E+00  6.578143634155E+00  6.657081357765E+00  6.736966334058E+00
  6.817809930066E+00  6.899623649227E+00  6.982419133018E+00  7.066208162614E+00
  7.151002660566E+00  7.236814692492E+00  7.323656468802E+00  7.411540346428E+00
  7.500478830585E+00  7.590484576552E+00  7.681570391471E+00  7.773749236168E+00
  7.867034227002E+00  7.961438637726E+00  8.056975901379E+00  8.153659612196E+00
  8.251503527542E+00  8.350521569872E+00  8.450727828711E+00  8.552136562655E+00
  8.654762201407E+00  8.758619347824E+00  8.863722779998E+00  8.970087453358E+00
  9.077728502798E+00  9.186661244832E+00  9.296901179770E+00  9.408463993927E+00
  9.521365561854E+00  9.635621948597E+00  9.751249411980E+00  9.868264404924E+00
  9.986683577783E+00  1.010652378072E+01  1.022780206608E+01  1.035053569088E+01
  1.047474211917E+01  1.060043902460E+01  1.072764429289E+01  1.085637602441E+01
  1.098665253670E+01  1.111849236714E+01  1.125191427555E+01  1.138693724685E+01
  1.152358049382E+01  1.166186345974E+01  1.180180582126E+01  1.194342749111E+01
  1.208674862101E+01  1.223178960446E+01  1.237857107971E+01  1.252711393267E+01
  1.267743929986E+01  1.282956857146E+01  1.298352339432E+01  1.313932567505E+01
  1.329699758315E+01  1.345656155415E+01  1.361804029280E+01  1.378145677631E+01
  1.394683425763E+01  1.411419626872E+01  1.428356662394E+01  1.445496942343E+01
  1.462842905651E+01  1.480397020519E+01  1.498161784765E+01  1.516139726182E+01
  1.534333402896E+01  1.552745403731E+01  1.571378348576E+01  1.590234888759E+01
  1.609317707424E+01  1.628629519913E+01  1.648173074152E+01  1.667951151042E+01
  1.687966564854E+01  1.708222163633E+01  1.728720829596E+01  1.749465479551E+01
  1.770459065306E+01  1.791704574090E+01  1.813205028979E+01  1.834963489327E+01
  1.856983051198E+01  1.879266847813E+01  1.901818049987E+01  1.924639866586E+01
  1.947735544985E+01  1.971108371525E+01  1.994761671984E+01  2.018698812047E+01
  2.042923197792E+01  2.067438276165E+01  2.092247535479E+01  2.117354505905E+01
  2.142762759976E+01  2.168475913096E+01  2.194497624053E+01  2.220831595542E+01
  2.247481574688E+01  2.274451353584E+01  2.301744769827E+01  2.329365707065E+01
  2.357318095550E+01  2.385605912697E+01  2.414233183649E+01  2.443203981853E+01
  2.472522429635E+01  2.502192698791E+01  2.532219011176E+01  2.562605639310E+01
  2.593356906982E+01  2.624477189866E+01  2.655970916144E+01  2.687842567138E+01
  2.720096677944E+01  2.752737838079E+01  2.785770692136E+01  2.819199940441E+01
  2.853030339727E+01  2.887266703803E+01  2.921913904249E+01  2.956976871100E+01
  2.992460593553E+01  3.028370120676E+01  3.064710562124E+01  3.101487088870E+01
  3.138704933936E+01  3.176369393143E+01  3.214485825861E+01  3.253059655771E+01
  3.292096371640E+01  3.331601528100E+01  3.371580746437E+01  3.412039715395E+01
  3.452984191979E+01  3.494420002283E+01  3.536353042311E+01  3.578789278818E+01
  3.621734750164E+01  3.665195567166E+01  3.709177913972E+01  3.753688048940E+01
  3.798732305527E+01  3.844317093193E+01  3.890448898312E+01  3.937134285091E+01
  3.984379896512E+01  4.032192455271E+01  4.080578764734E+01  4.129545709911E+01
  4.179100258430E+01  4.229249461531E+01  4.280000455069E+01  4.331360460530E+01
  4.383336786056E+01  4.435936827489E+01
</grid-data>
</grid>
<valence-charge total-charge="21" is-unscreening-charge="yes"
 rescaled-to-z-pseudo="no">
<radfunc>
<data npts="458">
  2.932309326880E+01  2.933638438783E+01  2.937738975517E+01  2.944524463423E+01
  2.953954289163E+01  2.966345835985E+01  2.982126036719E+01  3.000178237094E+01
  3.020453599061E+01  3.044067768969E+01  3.070645886459E+01  3.099487169191E+01
  3.134277236083E+01  3.170533781409E+01  3.206672755473E+01  3.248199249055E+01
  3.295884231733E+01  3.340950694024E+01  3.391456652485E+01  3.448017781452E+01
  3.511307710893E+01  3.567275235069E+01  3.628420836765E+01  3.695172403793E+01
  3.767981381598E+01  3.847321042763E+01  3.933683731400E+01  4.003369405013E+01
  4.077508549013E+01  4.156320238566E+01  4.240022635449E+01  4.328830335443E+01
  4.422951153596E+01  4.522582262361E+01  4.627905589019E+01  4.739082370582E+01
  4.856246756951E+01  4.979498347291E+01  5.065077774698E+01  5.153392820841E+01
  5.244435587368E+01  5.338184645811E+01  5.434603308096E+01  5.533637756973E+01
  5.635215033442E+01  5.739240879970E+01  5.845597440536E+01  5.954140821295E+01
  6.064698519010E+01  6.177066728472E+01  6.291007544952E+01  6.406246083394E+01
  6.522467542698E+01  6.639314250990E+01  6.756382736443E+01  6.873220877911E+01
  6.989325200390E+01  7.104138392125E+01  7.217047132874E+01  7.327380336323E+01
  7.434407923573E+01  7.537340258745E+01  7.635328391554E+01  7.727465264508E+01
  7.812788053607E+01  7.890281819931E+01  7.958884654374E+01  7.989508923272E+01
  8.017494497640E+01  8.042698768702E+01  8.064977811059E+01  8.084186765979E+01
  8.100180259267E+01  8.112812854414E+01  8.121939541610E+01  8.127416262900E+01
  8.129100473611E+01  8.126851739821E+01  8.120532371391E+01  8.110008089725E+01
  8.095148729045E+01  8.075828969590E+01  8.051929100690E+01  8.023335811237E+01
  7.989943004548E+01  7.951652634142E+01  7.908375556372E+01  7.860032395340E+01
  7.806554414915E+01  7.747884392122E+01  7.683977485579E+01  7.614802092082E+01
  7.540340683883E+01  7.460590618671E+01  7.375564913760E+01  7.285292975519E+01
  7.189821274718E+01  7.089213958081E+01  6.983553386135E+01  6.872940587284E+01
  6.757495617988E+01  6.637357819038E+01  6.512685958133E+01  6.383658249358E+01
  6.250472240695E+01  6.113344561436E+01  5.972510522255E+01  5.828223561803E+01
  5.680754534964E+01  5.530390839396E+01  5.377435378630E+01  5.222205361865E+01
  5.065030942603E+01  4.906253700395E+01  4.746224972304E+01  4.585304043032E+01
  4.423856205103E+01  4.262250702968E+01  4.100858577325E+01  3.940050428311E+01
  3.780194118466E+01  3.621652438419E+01  3.464780760047E+01  3.309924703411E+01
  3.157417844875E+01  3.007579494598E+01  2.860712571864E+01  2.717101606485E+01
  2.577010893760E+01  2.440682829171E+01  2.308336447068E+01  2.180166185201E+01
  2.056340893895E+01  1.937003105208E+01  1.822268573421E+01  1.712226093896E+01
  1.606937602677E+01  1.506438554408E+01  1.410738571256E+01  1.319822350665E+01
  1.233650815122E+01  1.152162482790E+01  1.075275033939E+01  1.002887044827E+01
  9.348798579649E+00  8.711195558862E+00  8.114590044014E+00  7.557399311670E+00
  7.037950060331E+00  6.554498911522E+00  6.105252311179E+00  5.688385563916E+00
  5.302060768420E+00  4.944443462287E+00  4.613717827578E+00  4.308100352464E+00
  4.025852073843E+00  3.765289840132E+00  3.524796082924E+00  3.302825356042E+00
  3.097909530024E+00  2.908661480767E+00  2.733777548998E+00  2.572038494330E+00
  2.422308178968E+00  2.283531108888E+00  2.154732552382E+00  2.035017907169E+00
  1.923571481934E+00  1.819654703864E+00  1.722603788656E+00  1.631826901095E+00
  1.546800826902E+00  1.467067173473E+00  1.392228117964E+00  1.321939567418E+00
  1.255895623288E+00  1.193810215678E+00  1.135413650231E+00  1.080454475727E+00
  1.028697374723E+00  9.799225527259E-01  9.339249196547E-01  8.905133104023E-01
  8.495097261684E-01  8.107485976176E-01  7.740760711231E-01  7.393493190596E-01
  7.064358748940E-01  6.752129936294E-01  6.455670379737E-01  6.173928904493E-01
  5.905933915128E-01  5.650788036200E-01  5.407663010605E-01  5.175794852617E-01
  4.954479251983E-01  4.743067224200E-01  4.540961001597E-01  4.347610159105E-01
  4.162507968012E-01  3.985187970546E-01  3.815220767709E-01  3.652211012497E-01
  3.495794600387E-01  3.345636048806E-01  3.201426057227E-01  3.062879239467E-01
  2.929732019809E-01  2.801740684638E-01  2.678679581375E-01  2.560339456666E-01
  2.446525925948E-01  2.337058066745E-01  2.231767128235E-01  2.130495349925E-01
  2.033094882487E-01  1.939426804108E-01  1.849360225961E-01  1.762771480678E-01
  1.679543388010E-01  1.599564592109E-01  1.522728965150E-01  1.448935072279E-01
  1.378085693156E-01  1.310087395572E-01  1.244850156941E-01  1.182287029633E-01
  1.122313846418E-01  1.064848962468E-01  1.009813030618E-01  9.571288067633E-02
  9.067209825160E-02  8.585160423874E-02  8.124421429900E-02  7.684290119026E-02
  7.264078640242E-02  6.863113333981E-02  6.480734186437E-02  6.116294402759E-02
  5.769160083343E-02  5.438709988716E-02  5.124335379787E-02  4.825439921367E-02
  4.541439638012E-02  4.271762912257E-02  4.015850516271E-02  3.773155668916E-02
  3.543144111002E-02  3.325294192350E-02  3.119096964996E-02  2.924056277549E-02
  2.739688866352E-02  2.565524439654E-02  2.401105751553E-02  2.245988662929E-02
  2.099742187051E-02  1.961948517940E-02  1.832203039942E-02  1.710114317301E-02
  1.595304062895E-02  1.487407085377E-02  1.386071214594E-02  1.290957205052E-02
  1.201738617599E-02  1.118101679665E-02  1.039745124593E-02  9.663800107595E-03
  8.977295213570E-03  8.335287458406E-03  7.735244441740E-03  7.174747951138E-03
  6.651491298669E-03  6.163276525286E-03  5.708011487653E-03  5.283706842486E-03
  4.888472943655E-03  4.520516667405E-03  4.178138180920E-03  3.859727669219E-03
  3.563762034987E-03  3.288801585431E-03  3.033486719633E-03  2.796534629146E-03
  2.576736023789E-03  2.372951893740E-03  2.184110318107E-03  2.009203329229E-03
  1.847283841007E-03  1.697462648578E-03  1.558905505728E-03  1.430830285491E-03
  1.312504228472E-03  1.203241282581E-03  1.102399537044E-03  1.009378752768E-03
  9.236179904457E-04  8.445933371015E-04  7.718157311861E-04  7.048288857818E-04
  6.432073089875E-04  5.865544201189E-04  5.345007599845E-04  4.867022931660E-04
  4.428387999544E-04  4.026123553609E-04  3.657458924257E-04  3.319818468990E-04
  3.010808802477E-04  2.728206778551E-04  2.469948192224E-04  2.234117169512E-04
  2.018936212715E-04  1.822756868963E-04  1.644050990079E-04  1.481402552298E-04
  1.333500004942E-04  1.199129117909E-04  1.077166298843E-04  9.665723498552E-05
  8.663866449599E-05  7.757216750318E-05  6.937579874135E-05  6.197394539112E-05
  5.529687991894E-05  4.928034989445E-05  4.386519533135E-05  3.899698579862E-05
  3.462568367019E-05  3.070533071469E-05  2.719375460376E-05  2.405229452717E-05
  2.124554474500E-05  1.874111483741E-05  1.650940555319E-05  1.452339924547E-05
  1.275846396480E-05  1.119217035531E-05  9.804120568044E-06  8.575788467012E-06
  7.490370459297E-06  6.532646329427E-06  5.688849502408E-06  4.946546198457E-06
  4.294522976790E-06  3.722682196019E-06  3.221944945463E-06  2.784161025302E-06
  2.402025574620E-06  2.069001965263E-06  1.779250596615E-06  1.527563242050E-06
  1.309302612390E-06  1.120346815379E-06  9.570384031588E-07  8.161377122707E-07
  6.947802128207E-07  5.904375953978E-07  5.008823360377E-07  4.241554911621E-07
  3.585374859505E-07  3.025216710588E-07  2.547904339741E-07  2.141936625800E-07
  1.797293696655E-07  1.505262981316E-07  1.258283374778E-07  1.049805927729E-07
  8.741695767311E-08  7.264905313396E-08  6.025640321489E-08  4.987772879178E-08
  4.120324902805E-08  3.396788910143E-08  2.794530091806E-08  2.294261135862E-08
  1.879581998358E-08  1.536577507406E-08  1.253466339963E-08  1.020295519060E-08
  8.286751455056E-09  6.715486031475E-09  5.429939617892E-09  4.380527482875E-09
  3.525826658628E-09  2.831312159347E-09  2.268275177458E-09  1.812899305583E-09
  1.445473632556E-09  1.149724087347E-09  9.122466746400E-10  7.220282795233E-10
  5.700425348086E-10  4.489098610809E-10  3.526122239513E-10  2.762544216859E-10
  2.158648349786E-10  1.682295537779E-10  1.307546574623E-10  1.013521769901E-10
  7.834592267657E-11  6.039392977253E-11  4.642476591174E-11  3.558536875193E-11
  2.719844690492E-11  2.072778988997E-11  1.575009995304E-11  1.193218608118E-11
  9.012553665845E-12  6.786586698030E-12  5.094657232820E-12  3.812612768154E-12
  2.844189319012E-12  2.114979108035E-12  1.567649347581E-12  1.158164644783E-12
  8.528119217224E-13  6.258649553593E-13  4.577570315274E-13  3.336559041256E-13
  2.423562144301E-13  1.754215684687E-13  1.265222765091E-13  9.092590956417E-14
  6.510677554565E-14  4.644763343184E-14  3.301266778737E-14  2.337533231587E-14
  1.648828097552E-14  1.158546329514E-14  8.108707793008E-15  5.652878382279E-15
  3.925063214506E-15  2.714324147183E-15  1.869362672073E-15  1.282096521498E-15
  8.756315661938E-16  5.954887911308E-16  4.032319677776E-16  2.718584949719E-16
  1.824797044701E-16  1.219401589092E-16  8.111776529232E-17  5.371534939281E-17
  3.540542782984E-17  2.322767293012E-17  1.516634362863E-17  9.855297782164E-18
  6.373028431009E-18  4.100925426546E-18  2.625721537216E-18  0.000000000000E+00
  0.000000000000E+00  0.000000000000E+00  0.000000000000E+00  0.000000000000E+00
  0.000000000000E+00  0.000000000000E+00
</data>
</radfunc>
</valence-charge>
<pseudocore-charge matching-radius="0.341457181469"
 number-of-continuous-derivatives="4">
<annotation model-charge-form="Teter function with specified parameters" />
<radfunc>
<data npts="291">
  2.155887195264E+02  2.155236775282E+02  2.153230724579E+02  2.149913178351E+02
  2.145306962804E+02  2.139261435710E+02  2.131574830981E+02  2.122798201698E+02
  2.112961884692E+02  2.101533951034E+02  2.088707772381E+02  2.074832582797E+02
  2.058155051238E+02  2.040843521494E+02  2.023657892797E+02  2.003995857604E+02
  1.981530192886E+02  1.960407911508E+02  1.936862139208E+02  1.910650480683E+02
  1.881515836994E+02  1.855922543736E+02  1.828143018141E+02  1.798031503996E+02
  1.765441146672E+02  1.730226142340E+02  1.692244406053E+02  1.661860789797E+02
  1.629791477179E+02  1.595987779583E+02  1.560406714389E+02  1.523012349623E+02
  1.483777288785E+02  1.442684294492E+02  1.399728045136E+02  1.354917013161E+02
  1.308275446700E+02  1.259845428065E+02  1.226594905684E+02  1.192600353555E+02
  1.157890122246E+02  1.122497444150E+02  1.086460678867E+02  1.049823538598E+02
  1.012635287648E+02  9.749509094704E+01  9.368312341930E+01  8.983430189699E+01
  8.595589730910E+01  8.205577193848E+01  7.814236832230E+01  7.422469003484E+01
  7.031227348783E+01  6.641514991994E+01  6.254379681341E+01  5.870907807543E+01
  5.492217245999E+01  5.119448988628E+01  4.753757553669E+01  4.396300189230E+01
  4.048224918987E+01  3.710657515858E+01  3.384687531690E+01  3.071353557200E+01
  2.771627935831E+01  2.486401206438E+01  2.216466601092E+01  2.087451398148E+01
  1.962504973568E+01  1.841692540504E+01  1.725070578629E+01  1.612686468695E+01
  1.504578158900E+01  1.400773866932E+01  1.301291821557E+01  1.206140047523E+01
  1.115316197444E+01  1.028807434168E+01  9.465903669002E+00  8.686310441058E+00
  7.948850058567E+00  7.252973979345E+00  6.598031495394E+00  5.983272159638E+00
  5.407848870345E+00  4.870821615128E+00  4.371161870007E+00  3.907757641767E+00
  3.479419134618E+00  3.084885014385E+00  2.722829235498E+00  2.391868388036E+00
  2.090569514019E+00  1.817458334208E+00  1.571027819058E+00  1.349747030208E+00
  1.152070152304E+00  9.764456290103E-01  8.213253121430E-01  6.851735289277E-01
  5.664759697623E-01  4.637482975936E-01  3.755443802896E-01  3.004640492973E-01
  2.371602915136E-01  1.843457867276E-01  1.407987102279E-01  1.053677292032E-01
  7.697613232499E-02  5.462504428450E-02  3.739569089229E-02  2.445069543332E-02
  1.503440303112E-02  8.472246502993E-03  4.169184224497E-03  1.607257469779E-03
  3.423311293780E-04  9.718297573682E-08  2.714343699344E-04  9.072297110992E-04
  1.712777470811E-03  2.541878428569E-03  3.290766633308E-03  3.891991892922E-03
  4.308383951548E-03  4.527218576744E-03  4.554696683868E-03  4.410835355769E-03
  4.124854489371E-03  3.731125258266E-03  3.265727179578E-03  2.763639972606E-03
  2.256575334534E-03  1.771433025540E-03  1.329346062521E-03  9.452621603094E-04
  6.279935677747E-04  3.806557619653E-04  2.014075885392E-04  8.440170229423E-05
  2.085469977877E-05  1.510615003996E-07  1.090362448070E-05  4.190525918316E-05
  8.292100336622E-05  1.252862225838E-04  1.622934233926E-04  1.893670888068E-04
  2.040413000474E-04  2.057680060414E-04  1.955938128168E-04  1.757495208307E-04
  1.491990424764E-04  1.191927897440E-04  8.886544807965E-05  6.090985298366E-05
  3.734831298880E-05  1.941120488084E-05  7.521119195611E-06  1.370354490087E-06
  7.112309648232E-08  2.352192596222E-06  6.773297282525E-06  1.192960959588E-05
  1.662259136762E-05  1.998003507838E-05  2.151616844836E-05  2.113127334082E-05
  1.905826265757E-05  1.577006514520E-05  1.186571612603E-05  7.954305814681E-06
  4.554357902548E-06  2.022167423474E-06  5.168410710829E-07  3.225211200680E-09
  0.000000000000E+00  0.000000000000E+00  0.000000000000E+00  0.000000000000E+00
  0.000000000000E+00  0.000000000000E+00  0.000000000000E+00  0.000000000000E+00
  0.000000000000E+00  0.000000000000E+00  0.000000000000E+00  0.000000000000E+00
  0.000000000000E+00  0.000000000000E+00  0.000000000000E+00  0.000000000000E+00
  0.000000000000E+00  0.000000000000E+00  0.000000000000E+00  0.000000000000E+00
  0.000000000000E+00  0.000000000000E+00  0.000000000000E+00  0.000000000000E+00
  0.000000000000E+00  0.000000000000E+00  0.000000000000E+00  0.000000000000E+00
  0.000000000000E+00  0.000000000000E+00  0.000000000000E+00  0.000000000000E+00
  0.000000000000E+00  0.000000000000E+00  0.000000000000E+00  0.000000000000E+00
  0.000000000000E+00  0.000000000000E+00  0.000000000000E+00  0.000000000000E+00
  0.000000000000E+00  0.000000000000E+00  0.000000000000E+00  0.000000000000E+00
  0.000000000000E+00  0.000000000000E+00  0.000000000000E+00  0.000000000000E+00
  0.000000000000E+00  0.000000000000E+00  0.000000000000E+00  0.000000000000E+00
  0.000000000000E+00  0.000000000000E+00  0.000000000000E+00  0.000000000000E+00
  0.000000000000E+00  0.000000000000E+00  0.000000000000E+00  0.000000000000E+00
  0.000000000000E+00  0.000000000000E+00  0.000000000000E+00  0.000000000000E+00
  0.000000000000E+00  0.000000000000E+00  0.000000000000E+00  0.000000000000E+00
  0.000000000000E+00  0.000000000000E+00  0.000000000000E+00  0.000000000000E+00
  0.000000000000E+00  0.000000000000E+00  0.000000000000E+00  0.000000000000E+00
  0.000000000000E+00  0.000000000000E+00  0.000000000000E+00  0.000000000000E+00
  0.000000000000E+00  0.000000000000E+00  0.000000000000E+00  0.000000000000E+00
  0.000000000000E+00  0.000000000000E+00  0.000000000000E+00  0.000000000000E+00
  0.000000000000E+00  0.000000000000E+00  0.000000000000E+00  0.000000000000E+00
  0.000000000000E+00  0.000000000000E+00  0.000000000000E+00  0.000000000000E+00
  0.000000000000E+00  0.000000000000E+00  0.000000000000E+00  0.000000000000E+00
  0.000000000000E+00  0.000000000000E+00  0.000000000000E+00  0.000000000000E+00
  0.000000000000E+00  0.000000000000E+00  0.000000000000E+00  0.000000000000E+00
  0.000000000000E+00  0.000000000000E+00  0.000000000000E+00  0.000000000000E+00
  0.000000000000E+00  0.000000000000E+00  0.000000000000E+00
</data>
</radfunc>
</pseudocore-charge>
<semilocal-potentials set="scalar_relativistic">
<slps n="3" l="s" rc="1.20912326210" eref="-5.43072065513">
<radfunc>
<data npts="291">
 -3.599022241394E+01 -3.599019658605E+01 -3.599011672378E+01 -3.598998408133E+01
 -3.598979873032E+01 -3.598955332860E+01 -3.598923771876E+01 -3.598887227284E+01
 -3.598845602588E+01 -3.598796319617E+01 -3.598739771420E+01 -3.598677054935E+01
 -3.598599434801E+01 -3.598516133398E+01 -3.598430525613E+01 -3.598328811508E+01
 -3.598207360271E+01 -3.598087754118E+01 -3.597947831808E+01 -3.597783348487E+01
 -3.597588974245E+01 -3.597407487833E+01 -3.597198341794E+01 -3.596956371629E+01
 -3.596675296610E+01 -3.596347463447E+01 -3.595963531915E+01 -3.595631994400E+01
 -3.595256807211E+01 -3.594831310105E+01 -3.594347757636E+01 -3.593797143853E+01
 -3.593169000700E+01 -3.592451166850E+01 -3.591629523383E+01 -3.590687692647E+01
 -3.589606696501E+01 -3.588364570330E+01 -3.587434588938E+01 -3.586413328661E+01
 -3.585291486500E+01 -3.584058846516E+01 -3.582704201964E+01 -3.581215273533E+01
 -3.579578624308E+01 -3.577779572292E+01 -3.575802101733E+01 -3.573628774925E+01
 -3.571240646658E+01 -3.568617184133E+01 -3.565736195806E+01 -3.562573773283E+01
 -3.559104251045E+01 -3.555300189174E+01 -3.551132384327E+01 -3.546569913682E+01
 -3.541580215182E+01 -3.536129204958E+01 -3.530181429039E+01 -3.523700241577E+01
 -3.516647996181E+01 -3.508986231474E+01 -3.500675828244E+01 -3.491677115137E+01
 -3.481949904471E+01 -3.471453449990E+01 -3.460146333341E+01 -3.454175610392E+01
 -3.447986302732E+01 -3.441572970351E+01 -3.434930101191E+01 -3.428052108310E+01
 -3.420933328531E+01 -3.413568022751E+01 -3.405950378058E+01 -3.398074511708E+01
 -3.389934476960E+01 -3.381524270719E+01 -3.372837842885E+01 -3.363869107337E+01
 -3.354611954443E+01 -3.345060265021E+01 -3.335207925741E+01 -3.325048845932E+01
 -3.314576975835E+01 -3.303786326342E+01 -3.292670990232E+01 -3.281225164921E+01
 -3.269443176652E+01 -3.257319505964E+01 -3.244848814196E+01 -3.232025970613E+01
 -3.218846079651E+01 -3.205304507638E+01 -3.191396908242E+01 -3.177119245862E+01
 -3.162467816137E+01 -3.147439262801E+01 -3.132030590221E+01 -3.116239171098E+01
 -3.100062749027E+01 -3.083499435852E+01 -3.066547704012E+01 -3.049206374329E+01
 -3.031474599912E+01 -3.013351847071E+01 -2.994837874234E+01 -2.975932709968E+01
 -2.956636631182E+01 -2.936950142570E+01 -2.916873958223E+01 -2.896408986218E+01
 -2.875556316828E+01 -2.854317214852E+01 -2.832693116402E+01 -2.810685630387E+01
 -2.788296544851E+01 -2.765527838281E+01 -2.742381696046E+01 -2.718860532149E+01
 -2.694967016634E+01 -2.670704109101E+01 -2.646075099018E+01 -2.621083653719E+01
 -2.595733875257E+01 -2.570030367565E+01 -2.543978315710E+01 -2.517583579361E+01
 -2.490852802961E+01 -2.463793545471E+01 -2.436414432972E+01 -2.408725337778E+01
 -2.380737588137E+01 -2.352464212904E+01 -2.323920225917E+01 -2.295122954966E+01
 -2.266092420343E+01 -2.236851767840E+01 -2.207427760742E+01 -2.177851334755E+01
 -2.148158218909E+01 -2.118389624256E+01 -2.088593000547E+01 -2.058822859238E+01
 -2.029141658866E+01 -1.999620746448E+01 -1.970341345869E+01 -1.941395581599E+01