<?xml version="1.0" encoding="UTF-8" ?>
<psml version="1.1" energy_unit="hartree" length_unit="bohr"
 uuid="e079d6e0-1d5f-11e8-440e-7cfdce1f01c8"
 xmlns="http://esl.cecam.org/PSML/ns/1.1">
<provenance creator="ONCVPSP-3.3.0+psml-3.3.0-73 (scalar-relativistic)"
 date="2018-03-01">
<annotation action="semilocal-pseudopotential-generation"
 action-cont="projectors-generation" />
<input-file name="oncvpsp-input">
<![CDATA[# atsym z nc nv iexc psfile
Ga 31 5 3 -116133 upf
# n l f
1 0 2.0
2 0 2.0
2 1 6.0
3 0 2.0
3 1 6.0
3 2 10.0
4 0 2.0
4 1 1.0
# lmax
2
# l rc ep ncon nbas qcut
0 1.65 0.0 4 8 4.4
1 1.75 0.0 4 8 5.8
2 1.9 0.0 4 9 9.0
# lloc lpopt rc5 dvloc0
4 5 1.6 0.0
# l nproj debl
0 2 3.0
1 2 3.0
2 2 2.0
# icmod fcfact rcfact
3 5.0 1.4
# epsh1 epsh2 depsh
-12.0 12.0 0.02
# rlmax drl
6.0 0.01
 0
]]>
</input-file>
</provenance>
<pseudo-atom-spec atomic-label="Ga" atomic-number="31" z-pseudo="13"
 flavor="Hamann&apos;s oncvpsp" relativity="scalar" spin-dft="no"
 core-corrections="yes">
<annotation pseudo-energy="-67.0300544488" />
<exchange-correlation>
<annotation oncvpsp-xc-code="-116133" oncvpsp-xc-type="libxc-interface" />
<libxc-info number-of-functionals="2">
<functional name="Perdew, Burke &amp; Ernzerhof SOL (GGA)" type="exchange"
 id="116" />
<functional name="Perdew, Burke &amp; Ernzerhof SOL (GGA)" type="correlation"
 id="133" />
</libxc-info>
</exchange-correlation>
<valence-configuration total-valence-charge="13">
<shell n="3" l="d" occupation="10" />
<shell n="4" l="s" occupation="2" />
<shell n="4" l="p" occupation="1" />
</valence-configuration>
</pseudo-atom-spec>
<grid npts="458">
<annotation type="sampled from oncvpsp log grid"
 recipe="r(i:1..N) = r1*exp(a*(i-1)) + r=0; resampled"
 recipe-cont="r1: scale; a: step" scale="0.161290322581E-04"
 step="0.119285708653E-01" delta="0.500000000000E-02" rmax="44.3593682749" />
<grid-data>
  0.000000000000E+00  5.005354308404E-03  1.011777605404E-02  1.517827746610E-02
  2.020946365338E-02  2.535038301076E-02  3.068122710716E-02  3.582773785855E-02
  4.085121947787E-02  4.602673310278E-02  5.124302544502E-02  5.637400155005E-02
  6.201874349076E-02  6.741965885400E-02  7.242185184910E-02  7.779518191586E-02
  8.356718552202E-02  8.870300612650E-02  9.415446082966E-02  9.994094767748E-02
  1.060830568691E-01  1.112674348058E-01  1.167051781279E-01  1.224086690381E-01
  1.283908948690E-01  1.346654776560E-01  1.412467051564E-01  1.463928491930E-01
  1.517264864416E-01  1.572544479790E-01  1.629838137635E-01  1.689219217026E-01
  1.750763770511E-01  1.814550621518E-01  1.880661465305E-01  1.949180973592E-01
  2.020196903006E-01  2.093800207477E-01  2.144352919686E-01  2.196126176579E-01
  2.249149446987E-01  2.303452911235E-01  2.359067478323E-01  2.416024803520E-01
  2.474357306376E-01  2.534098189181E-01  2.595281455861E-01  2.657941931331E-01
  2.722115281321E-01  2.787838032674E-01  2.855147594134E-01  2.924082277647E-01
  2.994681320159E-01  3.066984905953E-01  3.141034189522E-01  3.216871318994E-01
  3.294539460120E-01  3.374082820845E-01  3.455546676471E-01  3.538977395428E-01
  3.624422465663E-01  3.711930521674E-01  3.801551372189E-01  3.893336028520E-01
  3.987336733592E-01  4.083606991688E-01  4.182201598895E-01  4.232388018082E-01
  4.283176674299E-01  4.334574794391E-01  4.386589691923E-01  4.439228768226E-01
  4.492499513445E-01  4.546409507606E-01  4.600966421698E-01  4.656178018758E-01
  4.712052154983E-01  4.768596780843E-01  4.825819942213E-01  4.883729781520E-01
  4.942334538898E-01  5.001642553365E-01  5.061662264005E-01  5.122402211173E-01
  5.183871037707E-01  5.246077490160E-01  5.309030420042E-01  5.372738785082E-01
  5.437211650503E-01  5.502458190309E-01  5.568487688593E-01  5.635309540856E-01
  5.702933255346E-01  5.771368454410E-01  5.840624875863E-01  5.910712374374E-01
  5.981640922866E-01  6.053420613940E-01  6.126061661308E-01  6.199574401243E-01
  6.273969294058E-01  6.349256925587E-01  6.425448008694E-01  6.502553384798E-01
  6.580584025416E-01  6.659551033721E-01  6.739465646126E-01  6.820339233879E-01
  6.902183304686E-01  6.985009504342E-01  7.068829618394E-01  7.153655573815E-01
  7.239499440701E-01  7.326373433989E-01  7.414289915197E-01  7.503261394179E-01
  7.593300530909E-01  7.684420137280E-01  7.776633178928E-01  7.869952777075E-01
  7.964392210400E-01  8.059964916924E-01  8.156684495928E-01  8.254564709879E-01
  8.353619486397E-01  8.453862920234E-01  8.555309275277E-01  8.657972986580E-01
  8.761868662419E-01  8.867011086368E-01  8.973415219405E-01  9.081096202037E-01
  9.190069356462E-01  9.300350188739E-01  9.411954391004E-01  9.524897843696E-01
  9.639196617821E-01  9.754866977235E-01  9.871925380961E-01  9.990388485533E-01
  1.011027314736E+00  1.023159642513E+00  1.035437558223E+00  1.047862808922E+00
  1.060437162629E+00  1.073162408580E+00  1.086040357483E+00  1.099072841773E+00
  1.112261715874E+00  1.125608856465E+00  1.139116162742E+00  1.152785556695E+00
  1.166618983376E+00  1.180618411176E+00  1.194785832110E+00  1.209123262095E+00
  1.223632741241E+00  1.238316334136E+00  1.253176130145E+00  1.268214243707E+00
  1.283432814631E+00  1.298834008407E+00  1.314420016508E+00  1.330193056706E+00
  1.346155373386E+00  1.362309237867E+00  1.378656948721E+00  1.395200832106E+00
  1.411943242091E+00  1.428886560996E+00  1.446033199728E+00  1.463385598125E+00
  1.480946225303E+00  1.498717580006E+00  1.516702190966E+00  1.534902617258E+00
  1.553321448665E+00  1.571961306049E+00  1.590824841722E+00  1.609914739822E+00
  1.629233716700E+00  1.648784521301E+00  1.668569935556E+00  1.688592774783E+00
  1.708855888080E+00  1.729362158737E+00  1.750114504642E+00  1.771115878698E+00
  1.792369269242E+00  1.813877700473E+00  1.835644232879E+00  1.857671963673E+00
  1.879964027237E+00  1.902523595564E+00  1.925353878711E+00  1.948458125255E+00
  1.971839622759E+00  1.995501698232E+00  2.019447718610E+00  2.043681091234E+00
  2.068205264329E+00  2.093023727500E+00  2.118140012230E+00  2.143557692377E+00
  2.169280384686E+00  2.195311749302E+00  2.221655490294E+00  2.248315356177E+00
  2.275295140451E+00  2.302598682137E+00  2.330229866322E+00  2.358192624718E+00
  2.386490936215E+00  2.415128827449E+00  2.444110373379E+00  2.473439697859E+00
  2.503120974234E+00  2.533158425924E+00  2.563556327036E+00  2.594319002960E+00
  2.625450830996E+00  2.656956240967E+00  2.688839715859E+00  2.721105792449E+00
  2.753759061959E+00  2.786804170702E+00  2.820245820751E+00  2.854088770600E+00
  2.888337835847E+00  2.922997889877E+00  2.958073864556E+00  2.993570750930E+00
  3.029493599941E+00  3.065847523141E+00  3.102637693418E+00  3.139869345739E+00
  3.177547777888E+00  3.215678351223E+00  3.254266491438E+00  3.293317689335E+00
  3.332837501607E+00  3.372831551626E+00  3.413305530246E+00  3.454265196609E+00
  3.495716378968E+00  3.537664975516E+00  3.580116955222E+00  3.623078358684E+00
  3.666555298989E+00  3.710553962577E+00  3.755080610127E+00  3.800141577449E+00
  3.845743276378E+00  3.891892195695E+00  3.938594902043E+00  3.985858040868E+00
  4.033688337358E+00  4.082092597406E+00  4.131077708575E+00  4.180650641078E+00
  4.230818448771E+00  4.281588270156E+00  4.332967329398E+00  4.384962937351E+00
  4.437582492599E+00  4.490833482510E+00  4.544723484301E+00  4.599260166112E+00
  4.654451288106E+00  4.710304703563E+00  4.766828360006E+00  4.824030300326E+00
  4.881918663930E+00  4.940501687897E+00  4.999787708151E+00  5.059785160649E+00
  5.120502582577E+00  5.181948613568E+00  5.244131996931E+00  5.307061580894E+00
  5.370746319865E+00  5.435195275703E+00  5.500417619012E+00  5.566422630440E+00
  5.633219702005E+00  5.700818338429E+00  5.769228158490E+00  5.838458896392E+00
  5.908520403149E+00  5.979422647987E+00  6.051175719762E+00  6.123789828400E+00
  6.197275306340E+00  6.271642610016E+00  6.346902321337E+00  6.423065149193E+00
  6.500141930983E+00  6.578143634155E+00  6.657081357765E+00  6.736966334058E+00
  6.817809930066E+00  6.899623649227E+00  6.982419133018E+00  7.066208162614E+00
  7.151002660566E+00  7.236814692492E+00  7.323656468802E+00  7.411540346428E+00
  7.500478830585E+00  7.590484576552E+00  7.681570391471E+00  7.773749236168E+00
  7.867034227002E+00  7.961438637726E+00  8.056975901379E+00  8.153659612196E+00
  8.251503527542E+00  8.350521569872E+00  8.450727828711E+00  8.552136562655E+00
  8.654762201407E+00  8.758619347824E+00  8.863722779998E+00  8.970087453358E+00
  9.077728502798E+00  9.186661244832E+00  9.296901179770E+00  9.408463993927E+00
  9.521365561854E+00  9.635621948597E+00  9.751249411980E+00  9.868264404924E+00
  9.986683577783E+00  1.010652378072E+01  1.022780206608E+01  1.035053569088E+01
  1.047474211917E+01  1.060043902460E+01  1.072764429289E+01  1.085637602441E+01
  1.098665253670E+01  1.111849236714E+01  1.125191427555E+01  1.138693724685E+01
  1.152358049382E+01  1.166186345974E+01  1.180180582126E+01  1.194342749111E+01
  1.208674862101E+01  1.223178960446E+01  1.237857107971E+01  1.252711393267E+01
  1.267743929986E+01  1.282956857146E+01  1.298352339432E+01  1.313932567505E+01
  1.329699758315E+01  1.345656155415E+01  1.361804029280E+01  1.378145677631E+01
  1.394683425763E+01  1.411419626872E+01  1.428356662394E+01  1.445496942343E+01
  1.462842905651E+01  1.480397020519E+01  1.498161784765E+01  1.516139726182E+01
  1.534333402896E+01  1.552745403731E+01  1.571378348576E+01  1.590234888759E+01
  1.609317707424E+01  1.628629519913E+01  1.648173074152E+01  1.667951151042E+01
  1.687966564854E+01  1.708222163633E+01  1.728720829596E+01  1.749465479551E+01
  1.770459065306E+01  1.791704574090E+01  1.813205028979E+01  1.834963489327E+01
  1.856983051198E+01  1.879266847813E+01  1.901818049987E+01  1.924639866586E+01
  1.947735544985E+01  1.971108371525E+01  1.994761671984E+01  2.018698812047E+01
  2.042923197792E+01  2.067438276165E+01  2.092247535479E+01  2.117354505905E+01
  2.142762759976E+01  2.168475913096E+01  2.194497624053E+01  2.220831595542E+01
  2.247481574688E+01  2.274451353584E+01  2.301744769827E+01  2.329365707065E+01
  2.357318095550E+01  2.385605912697E+01  2.414233183649E+01  2.443203981853E+01
  2.472522429635E+01  2.502192698791E+01  2.532219011176E+01  2.562605639310E+01
  2.593356906982E+01  2.624477189866E+01  2.655970916144E+01  2.687842567138E+01
  2.720096677944E+01  2.752737838079E+01  2.785770692136E+01  2.819199940441E+01
  2.853030339727E+01  2.887266703803E+01  2.921913904249E+01  2.956976871100E+01
  2.992460593553E+01  3.028370120676E+01  3.064710562124E+01  3.101487088870E+01
  3.138704933936E+01  3.176369393143E+01  3.214485825861E+01  3.253059655771E+01
  3.292096371640E+01  3.331601528100E+01  3.371580746437E+01  3.412039715395E+01
  3.452984191979E+01  3.494420002283E+01  3.536353042311E+01  3.578789278818E+01
  3.621734750164E+01  3.665195567166E+01  3.709177913972E+01  3.753688048940E+01
  3.798732305527E+01  3.844317093193E+01  3.890448898312E+01  3.937134285091E+01
  3.984379896512E+01  4.032192455271E+01  4.080578764734E+01  4.129545709911E+01
  4.179100258430E+01  4.229249461531E+01  4.280000455069E+01  4.331360460530E+01
  4.383336786056E+01  4.435936827489E+01
</grid-data>
</grid>
<valence-charge total-charge="13" is-unscreening-charge="yes"
 rescaled-to-z-pseudo="no">
<radfunc>
<data npts="458">
  8.795490160513E-04  8.821312136039E-04  8.958331667899E-04  9.375420605354E-04
  1.034928371557E-03  1.232667014483E-03  1.599286732284E-03  2.176602292442E-03
  3.026217343799E-03  4.284516318953E-03  6.047353805304E-03  8.376477987941E-03
  1.176386224512E-02  1.596834602330E-02  2.084624115553E-02  2.730117934664E-02
  3.583876310813E-02  4.501808093959E-02  5.659392818884E-02  7.118277119177E-02
  8.955530756506E-02  1.076162913110E-01  1.293082639533E-01  1.553432363170E-01
  1.865667340886E-01  2.239808089386E-01  2.687703393510E-01  3.080344138229E-01
  3.529070292159E-01  4.041534875323E-01  4.626349922866E-01  5.293186317334E-01
  6.052878976028E-01  6.917536257737E-01  7.900651939621E-01  9.017217479050E-01
  1.028383149754E+00  1.171880248535E+00  1.277883546634E+00  1.392901107184E+00
  1.517612516870E+00  1.652735503391E+00  1.799025994565E+00  1.957277761774E+00
  2.128321569387E+00  2.313023743017E+00  2.512284060367E+00  2.727032859228E+00
  2.958227247917E+00  3.206846294574E+00  3.473885063340E+00  3.760347358093E+00
  4.067237028451E+00  4.395547688817E+00  4.746250699885E+00  5.120281264144E+00
  5.518522493237E+00  5.941787316643E+00  6.390798119095E+00  6.866164019630E+00
  7.368355739470E+00  7.897678050379E+00  8.454239851128E+00  9.037921988443E+00
  9.648343021713E+00  1.028482322856E+01  1.094634726210E+01  1.128608226305E+01
  1.163152600045E+01  1.198244015002E+01  1.233855827432E+01  1.269958468136E+01
  1.306519331876E+01  1.343502671346E+01  1.380869496725E+01  1.418577481936E+01
  1.456580878813E+01  1.494830440423E+01  1.533273354888E+01  1.571853191091E+01
  1.610509857741E+01  1.649179577286E+01  1.687794876253E+01  1.726284593604E+01
  1.764573908733E+01  1.802584390763E+01  1.840234070762E+01  1.877437538556E+01
  1.914106065701E+01  1.950147756207E+01  1.985467726492E+01  2.019968315960E+01
  2.053549329491E+01  2.086108312979E+01  2.117540862883E+01  2.147740970559E+01
  2.176601401898E+01  2.204014112537E+01  2.229870698618E+01  2.254062882719E+01
  2.276483034229E+01  2.297024723039E+01  2.315583304986E+01  2.332056537034E+01
  2.346345219661E+01  2.358353863459E+01  2.367991376362E+01  2.375171767412E+01
  2.379814862388E+01  2.381847026084E+01  2.381201885443E+01  2.377821047238E+01
  2.371654803450E+01  2.362662817028E+01  2.350814780278E+01  2.336091037741E+01
  2.318483165122E+01  2.297994495615E+01  2.274640584837E+01  2.248449605582E+01
  2.219462663706E+01  2.187734026720E+01  2.153331257063E+01  2.116335242551E+01
  2.076840117273E+01  2.034953067040E+01  1.990794014571E+01  1.944495180861E+01
  1.896200520507E+01  1.846065030399E+01  1.794253932809E+01  1.740941735785E+01
  1.686311175656E+01  1.630552048440E+01  1.573859939031E+01  1.516434859003E+01
  1.458479805956E+01  1.400199259172E+01  1.341797628160E+01  1.283477672268E+01
  1.225438910883E+01  1.167876044821E+01  1.110977410259E+01  1.054923486912E+01
  9.998854821181E+00  9.460240120110E+00  8.934878999900E+00  8.424131112956E+00
  7.929218405928E+00  7.451217671411E+00  6.991054893718E+00  6.549501475854E+00
  6.127172400600E+00  5.724526342237E+00  5.341867707665E+00  4.979350547583E+00
  4.636984241018E+00  4.314640820970E+00  4.012063776373E+00  3.728878136997E+00
  3.464601624354E+00  3.218656633904E+00  2.990382802538E+00  2.779049910891E+00
  2.583870872620E+00  2.404014572334E+00  2.238618329937E+00  2.086799791095E+00
  1.947668070482E+00  1.820334005189E+00  1.703919409023E+00  1.597565252840E+00
  1.500438730263E+00  1.411739200674E+00  1.330703031031E+00  1.256607383819E+00
  1.188773019441E+00  1.126566197183E+00  1.069399769296E+00  1.016733567945E+00
  9.680741851383E-01  9.229742420522E-01  8.810312372117E-01  8.418858803628E-01
  8.052194291313E-01  7.707504041331E-01  7.382322131691E-01  7.074510689330E-01
  6.782231979836E-01  6.503919558867E-01  6.238253690724E-01  5.984139166879E-01
  5.740682197863E-01  5.507168486634E-01  5.283034624975E-01  5.067812502932E-01
  4.861066943880E-01  4.662385257975E-01  4.471384727194E-01  4.287706668008E-01
  4.111015586453E-01  3.940997630249E-01  3.777359170341E-01  3.619825443785E-01
  3.468139257240E-01  3.322059751320E-01  3.181361225690E-01  3.045832024474E-01
  2.915273481329E-01  2.789498923330E-01  2.668332732593E-01  2.551609464406E-01
  2.439173020483E-01  2.330875875872E-01  2.226578357682E-01  2.126147974313E-01
  2.029458792985E-01  1.936390863901E-01  1.846829689096E-01  1.760665734015E-01
  1.677793979848E-01  1.598113514619E-01  1.521527161046E-01  1.447941139168E-01
  1.377264761761E-01  1.309410160579E-01  1.244292041490E-01  1.181827466606E-01
  1.121935661539E-01  1.064537845980E-01  1.009557085820E-01  9.569181651121E-02
  9.065474762172E-02  8.583729265443E-02  8.123238603547E-02  7.683309941708E-02
  7.263263643980E-02  6.862432858396E-02  6.480163198534E-02  6.115812509738E-02
  5.768750708930E-02  5.438359687691E-02  5.124033268985E-02  4.825177208602E-02
  4.541209233108E-02  4.271559106732E-02  4.015668720289E-02  3.772992195860E-02
  3.542996001550E-02  3.325159071223E-02  3.118972924648E-02  2.923941784017E-02
  2.739582683278E-02  2.565425567159E-02  2.401013377214E-02  2.245902122596E-02
  2.099660933635E-02  1.961872096625E-02  1.832131068581E-02  1.710046470966E-02
  1.595240061724E-02  1.487346685086E-02  1.386014199075E-02  1.290903380625E-02
  1.201687808575E-02  1.118053724923E-02  1.039699874956E-02  9.663373269882E-03
  8.976892726210E-03  8.334908085569E-03  7.734887011237E-03  7.174411347717E-03
  6.651174458894E-03  6.162978433609E-03  5.707731173357E-03  5.283443377263E-03
  4.888225439650E-03  4.520284275575E-03  4.177920089621E-03  3.859523102944E-03
  3.563570253199E-03  3.288621881465E-03  3.033318419625E-03  2.796377090986E-03
  2.576588636084E-03  2.372814074776E-03  2.183981514813E-03  2.009083016148E-03
  1.847171519257E-03  1.697357844828E-03  1.558807771179E-03  1.430739194861E-03
  1.312419379002E-03  1.203162293059E-03  1.102326046838E-03  1.009310420895E-03
  9.235544946546E-04  8.445343729853E-04  7.717610113239E-04  7.047781389079E-04
  6.431602791901E-04  5.865108660706E-04  5.344604542020E-04  4.866650213016E-04
  4.428043601182E-04  4.025805574724E-04  3.657165575961E-04  3.319548068424E-04
  3.010559767205E-04  2.727977621227E-04  2.469737515528E-04  2.233923661336E-04
  2.018758641599E-04  1.822594079758E-04  1.643901899832E-04  1.481266146352E-04
  1.333375333232E-04  1.199015291448E-04  1.077062486384E-04  9.664777747247E-05
  8.663005820477E-05  7.756434479302E-05  6.936869656963E-05  6.196750505436E-05
  5.529104680678E-05  4.927507325504E-05  4.386042804760E-05  3.899268417523E-05
  3.462180723071E-05  3.070184200798E-05  2.719061901950E-05  2.404948012000E-05
  2.124302206695E-05  1.873885677819E-05  1.650738718824E-05  1.452159769128E-05
  1.275685824138E-05  1.119074125556E-05  9.802850533717E-06  8.574661471233E-06
  7.489371895253E-06  6.531762905160E-06  5.688069141480E-06  4.945857946304E-06
  4.293916912581E-06  3.722149349843E-06  3.221477220642E-06  2.783751125665E-06
  2.401666936523E-06  2.068688694190E-06  1.778977408147E-06  1.527325407022E-06
  1.309095906036E-06  1.120167470274E-06  9.568830657664E-07  8.160034028970E-07
  6.946642887937E-07  5.903377172807E-07  5.007964366939E-07  4.240817474926E-07
  3.584742931292E-07  3.024676190964E-07  2.547442864473E-07  2.141543373687E-07
  1.796959215474E-07  1.504979030896E-07  1.258042785848E-07  1.049602475220E-07
  8.739978663331E-08  7.263458981352E-08  6.024424502594E-08  4.986752901425E-08
  4.119470967901E-08  3.396075462233E-08  2.793935259908E-08  2.293766242539E-08
  1.879171127783E-08  1.536237126517E-08  1.253184966974E-08  1.020063434092E-08
  8.284841385877E-09  6.713917552900E-09  5.428654552389E-09  4.379477024809E-09
  3.524969959383E-09  2.830615110023E-09  2.267709364125E-09  1.812441114863E-09
  1.445103487829E-09  1.149425798132E-09  9.120068837941E-10  7.218359947535E-10
  5.698887326607E-10  4.487871530628E-10  3.525145757783E-10  2.761769178206E-10
  2.158034816836E-10  1.681811148248E-10  1.307165174549E-10  1.013222279705E-10
  7.832247030807E-11  6.037561593654E-11  4.641050502624E-11  3.557429552820E-11
  2.718987361102E-11  2.072117149250E-11  1.574500576805E-11  1.192827678711E-11
  9.009562719991E-12  6.784305358343E-12  5.092922522531E-12  3.811297834821E-12
  2.843195735743E-12  2.114230745017E-12  1.567087509181E-12  1.157744223305E-12
  8.524983651944E-13  6.256318849415E-13  4.575843756077E-13  3.335284419779E-13
  2.422624434115E-13  1.753528259167E-13  1.264720614448E-13  9.088936058390E-14
  6.508027037250E-14  4.642848288398E-14  3.299888275683E-14  2.336544699455E-14
  1.648121925236E-14  1.158043816296E-14  8.105145898820E-15  5.650363655393E-15
  3.923294913333E-15  2.713085760425E-15  1.868498958363E-15  1.281496626404E-15
  8.752166589140E-16  5.952030484971E-16  4.030360269246E-16  2.717247189292E-16
  1.823887734128E-16  1.218786265555E-16  8.107631489156E-17  5.368755456095E-17
  3.538687606196E-17  2.321534847032E-17  1.515819495833E-17  9.849935913250E-18
  6.369517439368E-18  4.098637720532E-18  2.624238342072E-18  0.000000000000E+00
  0.000000000000E+00  0.000000000000E+00  0.000000000000E+00  0.000000000000E+00
  0.000000000000E+00  0.000000000000E+00
</data>
</radfunc>
</valence-charge>
<pseudocore-charge matching-radius="0.698500950434"
 number-of-continuous-derivatives="4">
<annotation model-charge-form="Teter function with specified parameters" />
<radfunc>
<data npts="291">
  1.224851887658E+02  1.224750505646E+02  1.224437688285E+02  1.223919925475E+02
  1.223200141560E+02  1.222253850015E+02  1.221048056547E+02  1.219667652561E+02
  1.218115961418E+02  1.216307012701E+02  1.214268751840E+02  1.212054185063E+02
  1.209378983299E+02  1.206586448773E+02  1.203798247354E+02  1.200588454074E+02
  1.196894649822E+02  1.193395655538E+02  1.189464842611E+02  1.185050552598E+02
  1.180095385921E+02  1.175699266243E+02  1.170880675885E+02  1.165600960276E+02
  1.159818336070E+02  1.153487725614E+02  1.146560603267E+02  1.140942591684E+02
  1.134936463705E+02  1.128517688097E+02  1.121660533992E+02  1.114338069052E+02
  1.106522169005E+02  1.098183540745E+02  1.089291761472E+02  1.079815336614E+02
  1.069721779633E+02  1.058977717079E+02  1.051436790409E+02  1.043581330969E+02
  1.035400984293E+02  1.026885335077E+02  1.018023940572E+02  1.008806368086E+02
  9.992222369193E+01  9.892612650115E+01  9.789133206240E+01  9.681684793456E+01
  9.570170867272E+01  9.454498268283E+01  9.334577969460E+01  9.210325887746E+01
  9.081663762103E+01  8.948520099785E+01  8.810831192089E+01  8.668542200236E+01
  8.521608311280E+01  8.369995963059E+01  8.213684136169E+01  8.052665709714E+01
  7.886948876189E+01  7.716558609278E+01  7.541538176507E+01  7.361950686714E+01
  7.177880660027E+01  6.989435605586E+01  6.796747589568E+01  6.698860835936E+01
  6.599974773177E+01  6.500113492432E+01  6.399302897199E+01  6.297570744900E+01
  6.194946686480E+01  6.091462303775E+01  5.987151144371E+01  5.882048753658E+01
  5.776192703769E+01  5.669622619094E+01  5.562380198029E+01  5.454509230624E+01
  5.346055611767E+01  5.237067349568E+01  5.127594568528E+01  5.017689507161E+01
  4.907406509649E+01  4.796802011164E+01  4.685934516454E+01  4.574864571307E+01
  4.463654726501E+01  4.352369493857E+01  4.241075294015E+01  4.129840395572E+01
  4.018734845218E+01  3.907830388544E+01  3.797200381203E+01  3.686919690128E+01
  3.577064584560E+01  3.467712616645E+01  3.358942491416E+01  3.250833926028E+01
  3.143467498125E+01  3.036924483332E+01  2.931286681856E+01  2.826636234311E+01
  2.723055426900E+01  2.620626486197E+01  2.519431363845E+01  2.419551511564E+01
  2.321067646973E+01  2.224059510804E+01  2.128605616222E+01  2.034782991039E+01
  1.942666913730E+01  1.852330644286E+01  1.763845151030E+01  1.677278834658E+01
  1.592697250865E+01  1.510162833042E+01  1.429734616642E+01  1.351467966911E+01
  1.275414311784E+01  1.201620881861E+01  1.130130459424E+01  1.060981138570E+01
  9.942060985773E+00  9.298333926628E+00  8.678857543376E+00  8.083804235581E+00
  7.513289948704E+00  6.967372897060E+00  6.446052549266E+00  5.949268896289E+00
  5.476902021027E+00  5.028771986869E+00  4.604639060924E+00  4.204204285458E+00
  3.827110408657E+00  3.472943183081E+00  3.141233037058E+00  2.831457120911E+00
  2.543041726211E+00  2.275365072323E+00  2.027760450346E+00  1.799519710196E+00
  1.589897072090E+00  1.398113239139E+00  1.223359783159E+00  1.064803771308E+00
  9.215925967416E-01  7.928589723641E-01  6.777260428494E-01  5.753125667044E-01
  4.847381171772E-01  4.051282484687E-01  3.356195720445E-01  2.753646869456E-01
  2.235369079602E-01  1.793347363937E-01  1.419860200284E-01  1.107517517240E-01
  8.492946000152E-02  6.385614986803E-02  4.691075804216E-02  3.351609358724E-02
  2.314024264824E-02  1.529742441797E-02  9.548294477374E-03  5.499701092561E-03
  2.803909711538E-03  1.157320562969E-03  2.987136811888E-04  7.064613664470E-06
  9.898225311056E-05  4.258274224964E-04  8.705767845829E-04  1.344501126838E-03
  1.783729896698E-03  2.145774880895E-03  2.406085035451E-03  2.554701637738E-03
  2.593078171347E-03  2.531122760952E-03  2.384512712334E-03  2.172321018186E-03
  1.914983866168E-03  1.632626594714E-03  1.343753595079E-03  1.064295799484E-03
  8.069980846732E-04  5.811186123622E-04  3.924032499681E-04  2.432911434048E-04
  1.333025522504E-04  5.955741695910E-05  1.737290856380E-05  8.903923603611E-07
  3.686669963757E-06  1.933077515860E-05  4.185559912895E-05  6.612272399863E-05
  8.806849345227E-05  1.048289511226E-04  1.147502373632E-04  1.172988000248E-04
  1.128918736084E-04  1.026727610079E-04  8.825730911822E-05  7.147756886345E-05
  5.414611290559E-05  3.786016065052E-05  2.385898702172E-05  1.294163549766E-05
  5.445344666078E-06  1.278962214503E-06  5.351517957940E-10  9.246898559793E-07
  3.243646873948E-06  6.145853431336E-06  8.918151894480E-06  1.102082586098E-05
  1.212930205791E-05  1.214114969098E-05  1.115168305027E-05  9.405350355111E-06
  7.232709610717E-06  4.983857596616E-06  2.968618901996E-06  1.411778646623E-06
  4.285262727730E-07  2.159582394958E-08  0.000000000000E+00  0.000000000000E+00
  0.000000000000E+00  0.000000000000E+00  0.000000000000E+00  0.000000000000E+00
  0.000000000000E+00  0.000000000000E+00  0.000000000000E+00  0.000000000000E+00
  0.000000000000E+00  0.000000000000E+00  0.000000000000E+00  0.000000000000E+00
  0.000000000000E+00  0.000000000000E+00  0.000000000000E+00  0.000000000000E+00
  0.000000000000E+00  0.000000000000E+00  0.000000000000E+00  0.000000000000E+00
  0.000000000000E+00  0.000000000000E+00  0.000000000000E+00  0.000000000000E+00
  0.000000000000E+00  0.000000000000E+00  0.000000000000E+00  0.000000000000E+00
  0.000000000000E+00  0.000000000000E+00  0.000000000000E+00  0.000000000000E+00
  0.000000000000E+00  0.000000000000E+00  0.000000000000E+00  0.000000000000E+00
  0.000000000000E+00  0.000000000000E+00  0.000000000000E+00  0.000000000000E+00
  0.000000000000E+00  0.000000000000E+00  0.000000000000E+00  0.000000000000E+00
  0.000000000000E+00  0.000000000000E+00  0.000000000000E+00  0.000000000000E+00
  0.000000000000E+00  0.000000000000E+00  0.000000000000E+00  0.000000000000E+00
  0.000000000000E+00  0.000000000000E+00  0.000000000000E+00  0.000000000000E+00
  0.000000000000E+00  0.000000000000E+00  0.000000000000E+00
</data>
</radfunc>
</pseudocore-charge>
<semilocal-potentials set="scalar_relativistic">
<slps n="4" l="s" rc="1.66856993556" eref="-0.329374140793">
<radfunc>
<data npts="291">
  7.054934132641E+01  7.049055579503E+01  7.030965248563E+01  7.001182114637E+01
  6.960104786997E+01  6.906670966111E+01  6.839505271369E+01  6.763852833824E+01
  6.680352279017E+01  6.585004996979E+01  6.480062820940E+01  6.368927951934E+01
  6.238520322735E+01  6.106680361587E+01  5.979208999303E+01  5.837362455928E+01
  5.680271782739E+01  5.537192322396E+01  5.382711535408E+01  5.216641427892E+01
  5.038941200416E+01  4.888488004738E+01  4.730823792399E+01  4.566185110009E+01
  4.394895720516E+01  4.217368526805E+01  4.034105310494E+01  3.893244233946E+01
  3.749763997908E+01  3.603966787136E+01  3.456176470428E+01  3.306735958833E+01
  3.156004184395E+01  3.004352752701E+01  2.852162334071E+01  2.699818867827E+01
  2.547709661173E+01  2.396219468456E+01  2.295757118517E+01  2.195848002477E+01
  2.096599409059E+01  1.998115723286E+01  1.900498016149E+01  1.803843666488E+01
  1.708246018134E+01  1.613794074849E+01  1.520572235061E+01  1.428660067852E+01
  1.338132131141E+01  1.249057832418E+01  1.161501331935E+01  1.075521487712E+01
  9.911718413127E+00  9.085006429083E+00  8.275509137734E+00  7.483605440672E+00
  6.709624234569E+00  5.953846019350E+00  5.216504780086E+00  4.497790113197E+00
  3.797849566762E+00  3.116791164415E+00  2.454686082270E+00  1.811571448682E+00
  1.187453237146E+00  5.823092233548E-01 -3.908021819296E-03 -2.899400808366E-01
 -5.712681309477E-01 -8.479038560697E-01 -1.119859957254E+00 -1.387150062365E+00
 -1.649788637102E+00 -1.907790897558E+00 -2.161172724568E+00 -2.409950580036E+00
 -2.654141425498E+00 -2.893762643159E+00 -3.128831959634E+00 -3.359367372693E+00
 -3.585387081256E+00 -3.806909418914E+00 -4.023952791343E+00 -4.236535617864E+00
 -4.444676277514E+00 -4.648393060001E+00 -4.847704121891E+00 -5.042627448437E+00
 -5.233180821450E+00 -5.419381793649E+00 -5.601247669915E+00 -5.778795495914E+00
 -5.952042054533E+00 -6.121003870585E+00 -6.285697224230E+00 -6.446138173546E+00
 -6.602342586639E+00 -6.754326183652E+00 -6.902104588984E+00 -7.045693393929E+00
 -7.185108229886E+00 -7.320364852158E+00 -7.451479234231E+00 -7.578467672294E+00
 -7.701346899568E+00 -7.820134209844E+00 -7.934847589458E+00 -8.045505856675E+00
 -8.152128807334E+00 -8.254737365337E+00 -8.353353736442E+00 -8.448001563619E+00
 -8.538706082145E+00 -8.625494272466E+00 -8.708395008859E+00 -8.787439201872E+00
 -8.862659932580E+00 -8.934092576778E+00 -9.001774917318E+00 -9.065747242973E+00
 -9.126052432345E+00 -9.182736021487E+00 -9.235846254061E+00 -9.285434112939E+00
 -9.331553332214E+00 -9.374260388559E+00 -9.413614470755E+00 -9.449677426029E+00
 -9.482513681502E+00 -9.512190138662E+00 -9.538776038238E+00 -9.562342792261E+00
 -9.582963779421E+00 -9.600714099127E+00 -9.615670279012E+00 -9.627909930020E+00
 -9.637511342891E+00 -9.644553019838E+00 -9.649113135765E+00 -9.651268924788E+00
 -9.651095990291E+00 -9.648667540689E+00 -9.644053558808E+00 -9.637319920466E+00
 -9.628527487624E+00 -9.617731212996E+00 -9.604979305541E+00 -9.590312518401E+00
 -9.573763630559E+00 -9.555357197991E+00 -9.535109646522E+00 -9.513029763939E+00