<?xml version="1.0" encoding="UTF-8" ?>
<psml version="1.1" energy_unit="hartree" length_unit="bohr"
 uuid="7bcd6c50-1d66-11e8-4797-c2e8eedf1a9b"
 xmlns="http://esl.cecam.org/PSML/ns/1.1">
<provenance creator="ONCVPSP-3.3.0+psml-3.3.0-73 (scalar-relativistic)"
 date="2018-03-01">
<annotation action="semilocal-pseudopotential-generation"
 action-cont="projectors-generation" />
<input-file name="oncvpsp-input">
<![CDATA[# atsym z nc nv iexc psfile
Rn 86 12 3 -116133 upf
# n l f
1 0 2.0
2 0 2.0
2 1 6.0
3 0 2.0
3 1 6.0
3 2 10.0
4 0 2.0
4 1 6.0
4 2 10.0
5 0 2.0
5 1 6.0
4 3 14.0
5 2 10.0
6 0 2.0
6 1 6.0
# lmax
2
# l rc ep ncon nbas qcut
0 2.2 0.0 4 7 3.6
1 2.0 0.0 4 7 4.6
2 1.8 0.0 4 8 8.4
# lloc lpopt rc5 dvloc0
4 5 1.8 0.0
# l nproj debl
0 2 2.8
1 2 2.5
2 2 1.8
# icmod fcfact rcfact
3 6.0 1.34
# epsh1 epsh2 depsh
-12.0 12.0 0.02
# rlmax drl
6.0 0.01
 0
]]>
</input-file>
</provenance>
<pseudo-atom-spec atomic-label="Rn" atomic-number="86" z-pseudo="18"
 flavor="Hamann&apos;s oncvpsp" relativity="scalar" spin-dft="no"
 core-corrections="yes">
<annotation pseudo-energy="-109.976184604" />
<exchange-correlation>
<annotation oncvpsp-xc-code="-116133" oncvpsp-xc-type="libxc-interface" />
<libxc-info number-of-functionals="2">
<functional name="Perdew, Burke &amp; Ernzerhof SOL (GGA)" type="exchange"
 id="116" />
<functional name="Perdew, Burke &amp; Ernzerhof SOL (GGA)" type="correlation"
 id="133" />
</libxc-info>
</exchange-correlation>
<valence-configuration total-valence-charge="18">
<shell n="5" l="d" occupation="10" />
<shell n="6" l="s" occupation="2" />
<shell n="6" l="p" occupation="6" />
</valence-configuration>
</pseudo-atom-spec>
<grid npts="457">
<annotation type="sampled from oncvpsp log grid"
 recipe="r(i:1..N) = r1*exp(a*(i-1)) + r=0; resampled"
 recipe-cont="r1: scale; a: step" scale="0.581395348837E-05"
 step="0.119285708653E-01" delta="0.500000000000E-02" rmax="44.0749834721" />
<grid-data>
  0.000000000000E+00  5.032944516527E-03  1.005291170046E-02  1.508097059243E-02
  2.032086102386E-02  2.549011784273E-02  3.085034629218E-02  3.602522532560E-02
  4.107639707330E-02  4.628043884812E-02  5.152548411822E-02  5.668474287617E-02
  6.236059941843E-02  6.779128537727E-02  7.282105115488E-02  7.822399976325E-02
  8.402781945494E-02  8.919194941589E-02  9.467345329450E-02  1.004918360615E-01
  1.066678014120E-01  1.118807563599E-01  1.173484732785E-01  1.230834026227E-01
  1.290986033132E-01  1.354077724720E-01  1.420252766125E-01  1.471997869097E-01
  1.525628239076E-01  1.581212563368E-01  1.638822031812E-01  1.698530427959E-01
  1.760414223571E-01  1.824552676560E-01  1.891027932499E-01  1.959925129832E-01
  2.031332508913E-01  2.105341525020E-01  2.156172890801E-01  2.208231529076E-01
  2.261547071114E-01  2.316149863599E-01  2.372070985906E-01  2.429342267789E-01
  2.487996307503E-01  2.548066490351E-01  2.609587007694E-01  2.672592876408E-01
  2.737119958816E-01  2.803204983102E-01  2.870885564214E-01  2.940200225276E-01
  3.011188419515E-01  3.083890552716E-01  3.158348006221E-01  3.234603160483E-01
  3.312699419190E-01  3.392681233967E-01  3.474594129680E-01  3.558484730347E-01
  3.644400785676E-01  3.732391198245E-01  3.822506051336E-01  3.914796637439E-01
  4.009315487454E-01  4.106116400583E-01  4.205254474958E-01  4.255717528658E-01
  4.306786139002E-01  4.358467572670E-01  4.410769183542E-01  4.463698413744E-01
  4.517262794709E-01  4.571469948246E-01  4.626327587625E-01  4.681843518676E-01
  4.738025640900E-01  4.794881948591E-01  4.852420531974E-01  4.910649578358E-01
  4.969577373298E-01  5.029212301778E-01  5.089562849399E-01  5.150637603592E-01
  5.212445254835E-01  5.274994597893E-01  5.338294533068E-01  5.402354067465E-01
  5.467182316274E-01  5.532788504069E-01  5.599181966118E-01  5.666372149712E-01
  5.734368615508E-01  5.803181038894E-01  5.872819211361E-01  5.943293041897E-01
  6.014612558400E-01  6.086787909101E-01  6.159829364010E-01  6.233747316378E-01
  6.308552284175E-01  6.384254911585E-01  6.460865970524E-01  6.538396362170E-01
  6.616857118516E-01  6.696259403938E-01  6.776614516786E-01  6.857933890987E-01
  6.940229097679E-01  7.023511846851E-01  7.107793989013E-01  7.193087516881E-01
  7.279404567084E-01  7.366757421889E-01  7.455158510952E-01  7.544620413083E-01
  7.635155858040E-01  7.726777728337E-01  7.819499061077E-01  7.913333049810E-01
  8.008293046407E-01  8.104392562964E-01  8.201645273720E-01  8.300065017004E-01
  8.399665797208E-01  8.500461786775E-01  8.602467328216E-01  8.705696936155E-01
  8.810165299389E-01  8.915887282981E-01  9.022877930377E-01  9.131152465542E-01
  9.240726295128E-01  9.351615010670E-01  9.463834390798E-01  9.577400403487E-01
  9.692329208329E-01  9.808637158829E-01  9.926340804735E-01  1.004545689439E+00
  1.016600237712E+00  1.028799440565E+00  1.041145033852E+00  1.053638774258E+00
  1.066282439549E+00  1.079077828824E+00  1.092026762770E+00  1.105131083923E+00
  1.118392656930E+00  1.131813368813E+00  1.145395129239E+00  1.159139870790E+00
  1.173049549239E+00  1.187126143830E+00  1.201371657556E+00  1.215788117447E+00
  1.230377574856E+00  1.245142105754E+00  1.260083811023E+00  1.275204816756E+00
  1.290507274557E+00  1.305993361851E+00  1.321665282194E+00  1.337525265580E+00
  1.353575568767E+00  1.369818475592E+00  1.386256297299E+00  1.402891372867E+00
  1.419726069341E+00  1.436762782173E+00  1.454003935559E+00  1.471451982786E+00
  1.489109406579E+00  1.506978719458E+00  1.525062464092E+00  1.543363213661E+00
  1.561883572225E+00  1.580626175092E+00  1.599593689193E+00  1.618788813463E+00
  1.638214279225E+00  1.657872850575E+00  1.677767324782E+00  1.697900532680E+00
  1.718275339072E+00  1.738894643141E+00  1.759761378858E+00  1.780878515405E+00
  1.802249057589E+00  1.823876046281E+00  1.845762558836E+00  1.867911709542E+00
  1.890326650056E+00  1.913010569857E+00  1.935966696695E+00  1.959198297056E+00
  1.982708676620E+00  2.006501180740E+00  2.030579194909E+00  2.054946145248E+00
  2.079605498991E+00  2.104560764979E+00  2.129815494158E+00  2.155373280088E+00
  2.181237759449E+00  2.207412612563E+00  2.233901563913E+00  2.260708382680E+00
  2.287836883272E+00  2.315290925872E+00  2.343074416982E+00  2.371191309986E+00
  2.399645605706E+00  2.428441352974E+00  2.457582649210E+00  2.487073641001E+00
  2.516918524693E+00  2.547121546989E+00  2.577687005553E+00  2.608619249619E+00
  2.639922680615E+00  2.671601752782E+00  2.703660973816E+00  2.736104905501E+00
  2.768938164367E+00  2.802165422340E+00  2.835791407408E+00  2.869820904297E+00
  2.904258755148E+00  2.939109860210E+00  2.974379178533E+00  3.010071728675E+00
  3.046192589419E+00  3.082746900492E+00  3.119739863298E+00  3.157176741658E+00
  3.195062862557E+00  3.233403616908E+00  3.272204460311E+00  3.311470913835E+00
  3.351208564801E+00  3.391423067578E+00  3.432120144389E+00  3.473305586122E+00
  3.514985253155E+00  3.557165076193E+00  3.599851057108E+00  3.643049269793E+00
  3.686765861030E+00  3.731007051363E+00  3.775779135979E+00  3.821088485611E+00
  3.866941547438E+00  3.913344846008E+00  3.960304984160E+00  4.007828643970E+00
  4.055922587697E+00  4.104593658750E+00  4.153848782655E+00  4.203694968046E+00
  4.254139307663E+00  4.305188979355E+00  4.356851247107E+00  4.409133462072E+00
  4.462043063617E+00  4.515587580381E+00  4.569774631345E+00  4.624611926921E+00
  4.680107270045E+00  4.736268557285E+00  4.793103779972E+00  4.850621025332E+00
  4.908828477636E+00  4.967734419368E+00  5.027347232400E+00  5.087675399189E+00
  5.148727503979E+00  5.210512234027E+00  5.273038380835E+00  5.336314841405E+00
  5.400350619502E+00  5.465154826936E+00  5.530736684859E+00  5.597105525078E+00
  5.664270791379E+00  5.732242040875E+00  5.801028945366E+00  5.870641292710E+00
  5.941088988223E+00  6.012382056081E+00  6.084530640754E+00  6.157545008443E+00
  6.231435548545E+00  6.306212775127E+00  6.381887328429E+00  6.458469976370E+00
  6.535971616086E+00  6.614403275479E+00  6.693776114785E+00  6.774101428163E+00
  6.855390645300E+00  6.937655333044E+00  7.020907197041E+00  7.105158083405E+00
  7.190419980406E+00  7.276705020171E+00  7.364025480413E+00  7.452393786178E+00
  7.541822511612E+00  7.632324381751E+00  7.723912274332E+00  7.816599221624E+00
  7.910398412284E+00  8.005323193231E+00  8.101387071550E+00  8.198603716409E+00
  8.296986961006E+00  8.396550804538E+00  8.497309414192E+00  8.599277127162E+00
  8.702468452688E+00  8.806898074121E+00  8.912580851010E+00  9.019531821222E+00
  9.127766203077E+00  9.237299397514E+00  9.348146990284E+00  9.460324754167E+00
  9.573848651217E+00  9.688734835032E+00  9.804999653052E+00  9.922659648889E+00
  1.004173156468E+01  1.016223234345E+01  1.028417913157E+01  1.040758928115E+01
  1.053248035253E+01  1.065887011676E+01  1.078677655816E+01  1.091621787686E+01
  1.104721249138E+01  1.117977904127E+01  1.131393638977E+01  1.144970362645E+01
  1.158710006996E+01  1.172614527080E+01  1.186685901405E+01  1.200926132222E+01
  1.215337245809E+01  1.229921292759E+01  1.244680348272E+01  1.259616512451E+01
  1.274731910600E+01  1.290028693528E+01  1.305509037850E+01  1.321175146304E+01
  1.337029248060E+01  1.353073599036E+01  1.369310482225E+01  1.385742208012E+01
  1.402371114508E+01  1.419199567882E+01  1.436229962696E+01  1.453464722249E+01
  1.470906298916E+01  1.488557174503E+01  1.506419860597E+01  1.524496898924E+01
  1.542790861711E+01  1.561304352051E+01  1.580040004276E+01  1.599000484327E+01
  1.618188490139E+01  1.637606752021E+01  1.657258033045E+01  1.677145129442E+01
  1.697270870995E+01  1.717638121447E+01  1.738249778904E+01  1.759108776251E+01
  1.780218081566E+01  1.801580698545E+01  1.823199666928E+01  1.845078062931E+01
  1.867218999686E+01  1.889625627682E+01  1.912301135214E+01  1.935248748837E+01
  1.958471733823E+01  1.981973394629E+01  2.005757075364E+01  2.029826160269E+01
  2.054184074192E+01  2.078834283082E+01  2.103780294479E+01  2.129025658013E+01
  2.154573965909E+01  2.180428853500E+01  2.206593999742E+01  2.233073127739E+01
  2.259870005272E+01  2.286988445335E+01  2.314432306679E+01  2.342205494359E+01
  2.370311960292E+01  2.398755703815E+01  2.427540772261E+01  2.456671261528E+01
  2.486151316666E+01  2.515985132466E+01  2.546176954056E+01  2.576731077505E+01
  2.607651850435E+01  2.638943672640E+01  2.670610996712E+01  2.702658328672E+01
  2.735090228616E+01  2.767911311360E+01  2.801126247096E+01  2.834739762061E+01
  2.868756639206E+01  2.903181718876E+01  2.938019899503E+01  2.973276138297E+01
  3.008955451956E+01  3.045062917380E+01  3.081603672388E+01  3.118582916457E+01
  3.156005911455E+01  3.193877982392E+01  3.232204518181E+01  3.270990972399E+01
  3.310242864068E+01  3.349965778436E+01  3.390165367778E+01  3.430847352191E+01
  3.472017520417E+01  3.513681730662E+01  3.555845911430E+01  3.598516062367E+01
  3.641698255116E+01  3.685398634177E+01  3.729623417787E+01  3.774378898801E+01
  3.819671445586E+01  3.865507502933E+01  3.911893592969E+01  3.958836316084E+01
  4.006342351877E+01  4.054418460100E+01  4.103071481621E+01  4.152308339400E+01
  4.202136039473E+01  4.252561671947E+01  4.303592412010E+01  4.355235520954E+01
  4.407498347206E+01
</grid-data>
</grid>
<valence-charge total-charge="18" is-unscreening-charge="yes"
 rescaled-to-z-pseudo="no">
<radfunc>
<data npts="457">
  8.933915641923E-02  8.935440350317E-02  8.940262062852E-02  8.949186415327E-02
  8.964272752043E-02  8.986959290722E-02  9.021454120286E-02  9.068627989796E-02
  9.131444462144E-02  9.217749950986E-02  9.331853012989E-02  9.476061172877E-02
  9.678353209135E-02  9.922281087761E-02  1.019919441532E-01  1.055922625850E-01
  1.102813386427E-01  1.152613268704E-01  1.214798133454E-01  1.292492279940E-01
  1.389600531510E-01  1.484502175968E-01  1.597960633588E-01  1.733591374360E-01
  1.895694607764E-01  2.089376990405E-01  2.320692178106E-01  2.523136770212E-01
  2.754241187124E-01  3.017951545949E-01  3.318723903575E-01  3.661581729837E-01
  4.052177769058E-01  4.496860065029E-01  5.002741724199E-01  5.577773735732E-01
  6.230819844624E-01  6.971732073908E-01  7.519832092810E-01  8.115322313809E-01
  8.761946306870E-01  9.463688009823E-01  1.022477844176E+00  1.104970103004E+00
  1.194319520659E+00  1.291025788283E+00  1.395614236203E+00  1.508635419515E+00
  1.630664343002E+00  1.762299264588E+00  1.904160010643E+00  2.056885730527E+00
  2.221132012063E+00  2.397567274230E+00  2.586868348593E+00  2.789715157081E+00
  3.006784391068E+00  3.238742095673E+00  3.486235064273E+00  3.749880951977E+00
  4.030257023767E+00  4.327887463994E+00  4.643229189498E+00  4.976656129692E+00
  5.328441964318E+00  5.698741344019E+00  6.087569661201E+00  6.288893621791E+00
  6.494781489609E+00  6.705186231280E+00  6.920047871207E+00  7.139292736988E+00
  7.362832698613E+00  7.590564404877E+00  7.822368520801E+00  8.058108970270E+00
  8.297632188508E+00  8.540766389406E+00  8.787320853186E+00  9.037085240290E+00
  9.289828937852E+00  9.545300445513E+00  9.803226807805E+00  1.006331310074E+01
  1.032524198062E+01  1.058867330355E+01  1.085324382431E+01  1.111856698383E+01
  1.138423279452E+01  1.164980783303E+01  1.191483535023E+01  1.217883550824E+01
  1.244130575421E+01  1.270172134069E+01  1.295953600202E+01  1.321418279609E+01
  1.346507512005E+01  1.371160790833E+01  1.395315902047E+01  1.418909082517E+01
  1.441875198647E+01  1.464147945610E+01  1.485660067525E+01  1.506343598700E+01
  1.526130125920E+01  1.544951071547E+01  1.562737996992E+01  1.579422925898E+01
  1.594938686111E+01  1.609219269268E+01  1.622200206541E+01  1.633818958812E+01
  1.644015319222E+01  1.652731825774E+01  1.659914181327E+01  1.665511678041E+01
  1.669477623024E+01  1.671769761641E+01  1.672350694681E+01  1.671188285314E+01
  1.668256051583E+01  1.663533539929E+01  1.657006675169E+01  1.648668082188E+01
  1.638517374600E+01  1.626561405623E+01  1.612814476509E+01  1.597298498006E+01
  1.580043100558E+01  1.561085689269E+01  1.540471440013E+01  1.518253233572E+01
  1.494491525204E+01  1.469254147709E+01  1.442616046726E+01  1.414658947815E+01
  1.385470955682E+01  1.355146086833E+01  1.323783737846E+01  1.291488092444E+01
  1.258367471517E+01  1.224533631201E+01  1.190101015103E+01  1.155185967633E+01
  1.119905916276E+01  1.084378531384E+01  1.048720872729E+01  1.013048532584E+01
  9.774747855206E+00  9.421097553116E+00  9.070596094160E+00  8.724257914114E+00
  8.383043014259E+00  8.047850341380E+00  7.719511832347E+00  7.398787203552E+00
  7.086359555214E+00  6.782831848723E+00  6.488724302066E+00  6.204472734143E+00
  5.930427873829E+00  5.666855634135E+00  5.413938336308E+00  5.171776853335E+00
  4.940393627606E+00  4.719736503643E+00  4.509683304237E+00  4.310047067296E+00
  4.120581851351E+00  3.940989010334E+00  3.770923832826E+00  3.610002437734E+00
  3.457808817047E+00  3.313901917057E+00  3.177822651887E+00  3.049100747269E+00
  2.927261317999E+00  2.811831089153E+00  2.702344178764E+00  2.598347368102E+00
  2.499404794839E+00  2.405102014172E+00  2.315049383492E+00  2.228884737471E+00
  2.146275332672E+00  2.066919054029E+00  1.990544890011E+00  1.916912698771E+00
  1.845812304076E+00  1.777061530355E+00  1.710502146303E+00  1.645995202046E+00
  1.583420342847E+00  1.522674826302E+00  1.463672435494E+00  1.406342261293E+00
  1.350627389257E+00  1.296483527979E+00  1.243877193833E+00  1.192782163137E+00
  1.143175054142E+00  1.095033663244E+00  1.048336564248E+00  1.003062031892E+00
  9.591874538059E-01  9.166888745593E-01  8.755409599791E-01  8.357180545556E-01
  7.971957253702E-01  7.599507916732E-01  7.239607715713E-01  6.892038103547E-01
  6.556584664092E-01  6.233035472490E-01  5.921179662434E-01  5.620806212555E-01
  5.331702938980E-01  5.053655680450E-01  4.786447662026E-01  4.529859023135E-01
  4.283666495673E-01  4.047643217958E-01  3.821558670538E-01  3.605178720197E-01
  3.398265758954E-01  3.200578925341E-01  3.011874395855E-01  2.831905735134E-01
  2.660424294065E-01  2.497179645798E-01  2.341920050333E-01  2.194392939158E-01
  2.054345412266E-01  1.921524739668E-01  1.795678862937E-01  1.676556889243E-01
  1.563909574036E-01  1.457489787969E-01  1.357052964522E-01  1.262357525409E-01
  1.173165281449E-01  1.089241807121E-01  1.010356787571E-01  9.362843372936E-02
  8.668032901570E-02  8.016974608243E-02  7.407558779645E-02  6.837729899213E-02
  6.305488437349E-02  5.808892385724E-02  5.346058547296E-02  4.915163594121E-02
  4.514444904985E-02  4.142201194421E-02  3.796792943821E-02  3.476642644310E-02
  3.180234859877E-02  2.906116118137E-02  2.652894635101E-02  2.419239879563E-02
  2.203881982270E-02  2.005610994905E-02  1.823276004127E-02  1.655784106455E-02
  1.502099250537E-02  1.361240954332E-02  1.232282905802E-02  1.114351456787E-02
  1.006624020805E-02  9.083273864050E-03  8.187359584388E-03  7.371699401666E-03
  6.629934693544E-03  5.956127215871E-03  5.344739938116E-03  4.790617807015E-03
  4.288968558200E-03  3.835343687704E-03  3.425619686045E-03  3.055979627430E-03
  2.722895195718E-03  2.423109217627E-03  2.153618762318E-03  1.911658855441E-03
  1.694686844979E-03  1.500367446088E-03  1.326558482742E-03  1.171297335355E-03
  1.032788095899E-03  9.093894252896E-04  7.996031020332E-04  7.020632463183E-04
  6.155261998512E-04  5.388610386972E-04  4.710406941754E-04  4.111336553405E-04
  3.582962257042E-04  3.117653064947E-04  2.708516788391E-04  2.349337576828E-04
  2.034517909555E-04  1.759024783748E-04  1.518339852832E-04  1.308413279902E-04
  1.125621081933E-04  9.667257514615E-05  8.288399531089E-05  7.093931025449E-05
  6.061006451888E-05  5.169358611082E-05  4.401040311723E-05  3.740188076144E-05
  3.172806397854E-05  2.686571131166E-05  2.270650662001E-05  1.915543575046E-05
  1.612931596292E-05  1.355546651822E-05  1.137050944121E-05  9.519290061352E-06
  7.953907511706E-06  6.632845933333E-06  5.520197687999E-06  4.584970425082E-06
  3.800470379213E-06  3.143754791486E-06  2.595146848099E-06  2.137807014428E-06
  1.757355108710E-06  1.441537906349E-06  1.179937492402E-06  9.637159852234E-07
  7.853926378530E-07  6.386496852330E-07  5.181636444010E-07  4.194590916184E-07
  3.387822350702E-07  2.729918747816E-07  2.194655932940E-07  1.760192521282E-07
  1.408380809702E-07  1.124178397360E-07  8.951470920126E-08  7.110272473767E-08
  5.633771093443E-08  4.452680357244E-08  3.510276062281E-08  2.760236670820E-08
  2.164832681895E-08  1.693412600258E-08  1.321140318911E-08  1.027945017323E-08
  7.976501892366E-09  6.172532308163E-09  4.763312154241E-09  3.665521234500E-09
  2.812739469635E-09  2.152168065830E-09  1.641955538559E-09  1.249023336051E-09
  9.473028944053E-10  7.163104987913E-10  5.399986607264E-10  4.058331504291E-10
  3.040536110192E-10  2.270830615466E-10  1.690577731678E-10  1.254541559402E-10
  9.279357795154E-11  6.840958827108E-11  5.026494635212E-11  3.680827253465E-11
  2.686211224921E-11  1.953582287419E-11  1.415800841066E-11  1.022429515101E-11
  7.357105037606E-12  5.274779077470E-12  3.767961587976E-12  2.681602638030E-12
  1.901291888607E-12  1.342919508949E-12  9.448832314322E-13  6.622365957861E-13
  4.623115463138E-13  3.214565140324E-13  2.226151875356E-13  1.535363811960E-13
  1.054557785254E-13  7.212907997209E-14  4.912577576574E-14  3.331541975518E-14
  2.249549453490E-14  1.512298292541E-14  1.012157356347E-14  6.743789141118E-15
  4.472823222014E-15  2.952959122855E-15  1.940470039309E-15  1.269129140856E-15
  8.260937289529E-16  5.351215444079E-16  3.449449677329E-16  2.212563865472E-16
  1.412096869977E-16  8.966636697158E-17  5.664537859586E-17  3.559937047821E-17
  2.225542283034E-17  1.383940831926E-17  8.559717835266E-18  5.265424627157E-18
  3.221148953547E-18  1.959578891522E-18  1.185386446536E-18  7.129724975008E-19
  4.263548281646E-19  2.534689389098E-19  1.497968165571E-19  8.799810403273E-20
  5.138128379798E-20  2.981705271159E-20  1.719565664263E-20  9.854434925011E-21
  0.000000000000E+00  0.000000000000E+00  0.000000000000E+00  0.000000000000E+00
  0.000000000000E+00  0.000000000000E+00  0.000000000000E+00  0.000000000000E+00
  0.000000000000E+00  0.000000000000E+00  0.000000000000E+00  0.000000000000E+00
  0.000000000000E+00  0.000000000000E+00  0.000000000000E+00  0.000000000000E+00
  0.000000000000E+00  0.000000000000E+00  0.000000000000E+00  0.000000000000E+00
  0.000000000000E+00  0.000000000000E+00  0.000000000000E+00  0.000000000000E+00
  0.000000000000E+00  0.000000000000E+00  0.000000000000E+00  0.000000000000E+00
  0.000000000000E+00  0.000000000000E+00  0.000000000000E+00  0.000000000000E+00
  0.000000000000E+00
</data>
</radfunc>
</valence-charge>
<pseudocore-charge matching-radius="0.924072629513"
 number-of-continuous-derivatives="4">
<annotation model-charge-form="Teter function with specified parameters" />
<radfunc>
<data npts="290">
  8.983378430245E+01  8.982909545460E+01  8.981507860701E+01  8.979169267111E+01
  8.975737545293E+01  8.971358445366E+01  8.965776763123E+01  8.959384457718E+01
  8.952195975313E+01  8.943811700858E+01  8.934359418869E+01  8.924083305991E+01
  8.911661068676E+01  8.898683850723E+01  8.885716394374E+01  8.870775305549E+01
  8.853564098116E+01  8.837243637263E+01  8.818889259381E+01  8.798252299034E+01
  8.775054982296E+01  8.754446556595E+01  8.731826958515E+01  8.707005673913E+01
  8.679775349775E+01  8.649910563105E+01  8.617166557164E+01  8.590560238134E+01
  8.562065556210E+01  8.531555302985E+01  8.498894748709E+01  8.463941363258E+01
  8.426544555617E+01  8.386545438437E+01  8.343776625303E+01  8.298062069596E+01
  8.249216955146E+01  8.197047650449E+01  8.160321741716E+01  8.121966509343E+01
  8.081918146621E+01  8.040111200287E+01  7.996478620837E+01  7.950951826006E+01
  7.903460778764E+01  7.853934081298E+01  7.802299086548E+01  7.748482028949E+01
  7.692408176124E+01  7.634002003383E+01  7.573187392936E+01  7.509887859860E+01
  7.444026806876E+01  7.375527810101E+01  7.304314937963E+01  7.230313105496E+01
  7.153448466251E+01  7.073648844035E+01  6.990844206624E+01  6.904967183528E+01
  6.815953629728E+01  6.723743237133E+01  6.628280195256E+01  6.529513902267E+01
  6.427399727235E+01  6.321899823833E+01  6.212983995247E+01  6.157237988373E+01
  6.100630609309E+01  6.043160650360E+01  5.984827562099E+01  5.925631485935E+01
  5.865573287291E+01  5.804654589376E+01  5.742877807484E+01  5.680246183777E+01
  5.616763822499E+01  5.552435725537E+01  5.487267828285E+01  5.421267035703E+01
  5.354441258512E+01  5.286799449414E+01  5.218351639243E+01  5.149108972937E+01
  5.079083745215E+01  5.008289435827E+01  4.936740744244E+01  4.864453623653E+01
  4.791445314081E+01  4.717734374511E+01  4.643340713791E+01  4.568285620175E+01
  4.492591789288E+01  4.416283350319E+01  4.339385890226E+01  4.261926475741E+01
  4.183933672929E+01  4.105437564072E+01  4.026469761628E+01  3.947063419003E+01
  3.867253237885E+01  3.787075471849E+01  3.706567925983E+01  3.625769952231E+01
  3.544722440181E+01  3.463467803018E+01  3.382049958329E+01  3.300514303512E+01
  3.218907685466E+01  3.137278364314E+01  3.055675970869E+01  2.974151457592E+01
  2.892757042773E+01  2.811546147725E+01  2.730573326743E+01  2.649894189658E+01
  2.569565316782E+01  2.489644166121E+01  2.410188972727E+01  2.331258640104E+01
  2.252912623640E+01  2.175210806043E+01  2.098213364847E+01  2.021980632069E+01
  1.946572946177E+01  1.872050496580E+01  1.798473160903E+01  1.725900335401E+01
  1.654390758913E+01  1.584002330844E+01  1.514791923737E+01  1.446815191073E+01
  1.380126371023E+01  1.314778086966E+01  1.250821145653E+01  1.188304333995E+01
  1.127274215545E+01  1.067774927803E+01  1.009847981574E+01  9.535320636778E+00
  8.988628443804E+00  8.458727909748E+00  7.945909890177E+00  7.450429727511E+00
  6.972505662951E+00  6.512317372121E+00  6.070004640634E+00  5.645666195683E+00
  5.239358709616E+00  4.851095991053E+00  4.480848378503E+00  4.128542350696E+00
  3.794060366798E+00  3.477240948471E+00  3.177879014234E+00  2.895726474914E+00
  2.630493096993E+00  2.381847638476E+00  2.149419259510E+00  1.932799207324E+00
  1.731542772270E+00  1.545171508706E+00  1.373175711333E+00  1.215017134335E+00
  1.070131937334E+00  9.379338388004E-01  8.178174542482E-01  7.091617932577E-01
  6.113338862832E-01  5.236925092787E-01  4.455919715515E-01  3.763859299608E-01
  3.154311907092E-01  2.620914585752E-01  2.157409925937E-01  1.757681269462E-01
  1.415786162431E-01  1.125987655007E-01  8.827830696700E-02  6.809298855913E-02
  5.154684203227E-02  3.817410309708E-02  2.754076050212E-02  1.924571654304E-02
  1.292154747560E-02  8.234858795148E-03  4.886237181986E-03  2.609807960482E-03
  1.172414023322E-03  3.724391595911E-04  3.830541475302E-05  2.668031461892E-05
  2.204353164566E-04  5.264015271068E-04  8.729723819601E-04  1.207605461741E-03
  1.494276815455E-03  1.710940971214E-03  1.847048206359E-03  1.901167614843E-03
  1.878760104122E-03  1.790139778897E-03  1.648655381231E-03  1.469115762180E-03
  1.266475011713E-03  1.054784162138E-03  8.464076246351E-04  6.514940540267E-04
  4.776834998499E-04  3.300258139391E-04  2.110796362756E-04  1.211571138443E-04
  5.867700006959E-05  2.058803647037E-05  2.825547943426E-06  7.669104289011E-07
  9.655803503306E-06  2.497068191757E-05  4.271935431317E-05  5.964855058498E-05
  7.336446180089E-05  8.236700921227E-05  8.600662293086E-05  8.437721783083E-05
  7.816255423862E-05  6.845507666078E-05  5.656656780368E-05  4.384859868835E-05
  3.153798690094E-05  2.063859622761E-05  1.184621486733E-05  5.518386122313E-06
  1.686401842713E-06  1.026446954510E-07  3.134496068450E-07  1.745907583662E-06
  3.796679106208E-06  5.911889601846E-06  7.649365574712E-06  8.717524529344E-06
  8.988746457173E-06  8.488573475524E-06  7.365160488164E-06  5.845653489835E-06
  4.187340997552E-06  2.631399933487E-06  1.365902424207E-06  5.026892331808E-07
  7.010376536742E-08  0.000000000000E+00  0.000000000000E+00  0.000000000000E+00
  0.000000000000E+00  0.000000000000E+00  0.000000000000E+00  0.000000000000E+00
  0.000000000000E+00  0.000000000000E+00  0.000000000000E+00  0.000000000000E+00
  0.000000000000E+00  0.000000000000E+00  0.000000000000E+00  0.000000000000E+00
  0.000000000000E+00  0.000000000000E+00  0.000000000000E+00  0.000000000000E+00
  0.000000000000E+00  0.000000000000E+00  0.000000000000E+00  0.000000000000E+00
  0.000000000000E+00  0.000000000000E+00  0.000000000000E+00  0.000000000000E+00
  0.000000000000E+00  0.000000000000E+00  0.000000000000E+00  0.000000000000E+00
  0.000000000000E+00  0.000000000000E+00  0.000000000000E+00  0.000000000000E+00
  0.000000000000E+00  0.000000000000E+00  0.000000000000E+00  0.000000000000E+00
  0.000000000000E+00  0.000000000000E+00
</data>
</radfunc>
</pseudocore-charge>
<semilocal-potentials set="scalar_relativistic">
<slps n="6" l="s" rc="2.20741261256" eref="-0.806322820148">
<radfunc>
<data npts="290">
 -3.659433480714E+00 -3.661041799963E+00 -3.665847997497E+00 -3.673861061718E+00
 -3.685606845166E+00 -3.700573112412E+00 -3.719613527860E+00 -3.741369923453E+00
 -3.765773521936E+00 -3.794153189317E+00 -3.826040638909E+00 -3.860578892334E+00
 -3.902152676564E+00 -3.945377381290E+00 -3.988360178611E+00 -4.037627119415E+00
 -4.094039979386E+00 -4.147200059741E+00 -4.206600906362E+00 -4.272907467225E+00
 -4.346838087213E+00 -4.411988537684E+00 -4.482929784277E+00 -4.560100381839E+00
 -4.643956988479E+00 -4.734971896705E+00 -4.833629736047E+00 -4.912935028529E+00
 -4.997025733778E+00 -5.086110412550E+00 -5.180395275678E+00 -5.280082198376E+00
 -5.385366476593E+00 -5.496434315251E+00 -5.613460041610E+00 -5.736603041383E+00
 -5.866004420501E+00 -6.001783401717E+00 -6.095893182151E+00 -6.192900128126E+00
 -6.292818308581E+00 -6.395654775489E+00 -6.501408979219E+00 -6.610072175563E+00
 -6.721626828091E+00 -6.836046009891E+00 -6.953292809153E+00 -7.073319743434E+00
 -7.196068187828E+00 -7.321467822566E+00 -7.449436105891E+00 -7.579877778296E+00
 -7.712684404396E+00 -7.847733958861E+00 -7.984890462900E+00 -8.124003677786E+00
 -8.264908861841E+00 -8.407426597184E+00 -8.551362692310E+00 -8.696508166322E+00
 -8.842639320314E+00 -8.989517901043E+00 -9.136891361662E+00 -9.284493223890E+00
 -9.432043545664E+00 -9.579249497983E+00 -9.725806054457E+00 -9.798742349110E+00
 -9.871396796947E+00 -9.943728217511E+00 -1.001569484070E+01 -1.008725434249E+01
 -1.015836388263E+01 -1.022898014442E+01 -1.029905937662E+01 -1.036855743742E+01
 -1.043742984066E+01 -1.050563180429E+01 -1.057311830105E+01 -1.063984411166E+01
 -1.070576388024E+01 -1.077083217246E+01 -1.083500353607E+01 -1.089823256423E+01
 -1.096047396158E+01 -1.102168261315E+01 -1.108181365628E+01 -1.114082255557E+01
 -1.119866518112E+01 -1.125529789003E+01 -1.131067761137E+01 -1.136476193472E+01
 -1.141750920246E+01 -1.146887860584E+01 -1.151883028501E+01 -1.156732543317E+01
 -1.161432640481E+01 -1.165979682820E+01 -1.170370172225E+01 -1.174600761762E+01
 -1.178668268218E+01 -1.182569685074E+01 -1.186302195893E+01 -1.189863188103E+01
 -1.193250267163E+01 -1.196461271055E+01 -1.199494285089E+01 -1.202347656937E+01
 -1.205020011853E+01 -1.207510267992E+01 -1.209817651724E+01 -1.211941712855E+01
 -1.213882339613E+01 -1.215639773269E+01 -1.217214622225E+01 -1.218607875408E+01
 -1.219820914766E+01 -1.220855526673E+01 -1.221713912000E+01 -1.222398694652E+01
 -1.222912928285E+01 -1.223260100980E+01 -1.223444137594E+01 -1.223469399522E+01
 -1.223340681618E+01 -1.223063205980E+01 -1.222642612363E+01 -1.222084944953E+01
 -1.221396635263E+01 -1.220584480921E+01 -1.219655620141E+01 -1.218617501682E+01
 -1.217477850130E+01 -1.216244626372E+01 -1.214925983123E+01 -1.213530215460E+01
 -1.212065706291E+01 -1.210540866766E+01 -1.208964071671E+01 -1.207343589871E+01
 -1.205687509964E+01 -1.204003661317E+01 -1.202299530766E+01 -1.200582175308E+01
 -1.198858131211E+01 -1.197133320080E+01 -1.195412952511E+01 -1.193701430116E+01
 -1.192002246852E+01 -1.190317890746E+01 -1.188649747304E+01 -1.186998006051E+01