<?xml version="1.0" encoding="UTF-8" ?>
<psml version="1.1" energy_unit="hartree" length_unit="bohr"
 uuid="beaa98b0-1d5f-11e8-71da-1459e6ff11e1"
 xmlns="http://esl.cecam.org/PSML/ns/1.1">
<provenance creator="ONCVPSP-3.3.0+psml-3.3.0-73 (scalar-relativistic)"
 date="2018-03-01">
<annotation action="semilocal-pseudopotential-generation"
 action-cont="projectors-generation" />
<input-file name="oncvpsp-input">
<![CDATA[# atsym z nc nv iexc psfile
Mn 25 3 4 -116133 upf
# n l f
1 0 2.0
2 0 2.0
2 1 6.0
3 0 2.0
3 1 6.0
3 2 5.0
4 0 2.0
# lmax
2
# l rc ep ncon nbas qcut
0 1.4 0.0 4 7 8.2
1 1.2 0.0 4 7 10.4
2 1.6 0.0 4 7 9.8
# lloc lpopt rc5 dvloc0
4 5 1.2 0.0
# l nproj debl
0 2 1.0
1 2 1.0
2 2 1.0
# icmod fcfact
3 4 1.75
# epsh1 epsh2 depsh
-50.0 12.0 0.02
# rlmax drl
6.0 0.01
 0
]]>
</input-file>
</provenance>
<pseudo-atom-spec atomic-label="Mn" atomic-number="25" z-pseudo="15"
 flavor="Hamann&apos;s oncvpsp" relativity="scalar" spin-dft="no"
 core-corrections="yes">
<annotation pseudo-energy="-103.478483108" />
<exchange-correlation>
<annotation oncvpsp-xc-code="-116133" oncvpsp-xc-type="libxc-interface" />
<libxc-info number-of-functionals="2">
<functional name="Perdew, Burke &amp; Ernzerhof SOL (GGA)" type="exchange"
 id="116" />
<functional name="Perdew, Burke &amp; Ernzerhof SOL (GGA)" type="correlation"
 id="133" />
</libxc-info>
</exchange-correlation>
<valence-configuration total-valence-charge="15">
<shell n="3" l="s" occupation="2" />
<shell n="3" l="p" occupation="6" />
<shell n="3" l="d" occupation="5" />
<shell n="4" l="s" occupation="2" />
</valence-configuration>
</pseudo-atom-spec>
<grid npts="458">
<annotation type="sampled from oncvpsp log grid"
 recipe="r(i:1..N) = r1*exp(a*(i-1)) + r=0; resampled"
 recipe-cont="r1: scale; a: step" scale="0.200000000000E-04"
 step="0.119285708653E-01" delta="0.500000000000E-02" rmax="44.3769870573" />
<grid-data>
  0.000000000000E+00  5.007342349535E-03  1.012179466165E-02  1.518430601833E-02
  2.021749050673E-02  2.536045174936E-02  3.069341316587E-02  3.584196802331E-02
  4.086744488362E-02  4.604501413403E-02  5.126337829839E-02  5.639639233938E-02
  6.204337627505E-02  6.744643678951E-02  7.245061657011E-02  7.782608083168E-02
  8.360037697896E-02  8.873823744356E-02  9.419185737129E-02  9.998064251273E-02
  1.061251912451E-01  1.113116283280E-01  1.167515314288E-01  1.224572876681E-01
  1.284418895367E-01  1.347189644807E-01  1.413028059321E-01  1.464509939291E-01
  1.517867496073E-01  1.573169067565E-01  1.630485481470E-01  1.689890146010E-01
  1.751459143940E-01  1.815271329993E-01  1.881408431876E-01  1.949955154940E-01
  2.020999290667E-01  2.094631829112E-01  2.145204619994E-01  2.196998440339E-01
  2.250042770683E-01  2.304367803338E-01  2.360004459582E-01  2.416984407254E-01
  2.475340078783E-01  2.535104689645E-01  2.596312257271E-01  2.658997620411E-01
  2.723196458958E-01  2.788945314263E-01  2.856281609931E-01  2.925243673121E-01
  2.995870756365E-01  3.068203059907E-01  3.142281754585E-01  3.218149005268E-01
  3.295847994851E-01  3.375422948838E-01  3.456919160515E-01  3.540383016727E-01
  3.625862024283E-01  3.713404836997E-01  3.803061283381E-01  3.894882395007E-01
  3.988920435552E-01  4.085228930548E-01  4.183862697847E-01  4.234069050222E-01
  4.284877878824E-01  4.336296413370E-01  4.388331970331E-01  4.440991953975E-01
  4.494283857422E-01  4.548215263711E-01  4.602793846876E-01  4.658027373038E-01
  4.713923701515E-01  4.770490785933E-01  4.827736675364E-01  4.885669515469E-01
  4.944297549654E-01  5.003629120250E-01  5.063672669693E-01  5.124436741729E-01
  5.185929982630E-01  5.248161142422E-01  5.311139076131E-01  5.374872745044E-01
  5.439371217985E-01  5.504643672601E-01  5.570699396672E-01  5.637547789432E-01
  5.705198362905E-01  5.773660743260E-01  5.842944672179E-01  5.913060008245E-01
  5.984016728344E-01  6.055824929084E-01  6.128494828233E-01  6.202036766172E-01
  6.276461207366E-01  6.351778741855E-01  6.428000086757E-01  6.505136087798E-01
  6.583197720852E-01  6.662196093502E-01  6.742142446624E-01  6.823048155983E-01
  6.904924733855E-01  6.987783830661E-01  7.071637236629E-01  7.156496883469E-01
  7.242374846070E-01  7.329283344223E-01  7.417234744354E-01  7.506241561286E-01
  7.596316460022E-01  7.687472257542E-01  7.779721924632E-01  7.873078587728E-01
  7.967555530781E-01  8.063166197150E-01  8.159924191516E-01  8.257843281814E-01
  8.356937401196E-01  8.457220650010E-01  8.558707297810E-01  8.661411785384E-01
  8.765348726809E-01  8.870532911530E-01  8.976979306469E-01  9.084703058146E-01
  9.193719494844E-01  9.304044128782E-01  9.415692658328E-01  9.528680970228E-01
  9.643025141870E-01  9.758741443573E-01  9.875846340896E-01  9.994356496986E-01
  1.011428877495E+00  1.023566024025E+00  1.035848816313E+00  1.048279002109E+00
  1.060858350134E+00  1.073588650336E+00  1.086471714140E+00  1.099509374710E+00
  1.112703487206E+00  1.126055929053E+00  1.139568600201E+00  1.153243423404E+00
  1.167082344485E+00  1.181087332618E+00  1.195260380610E+00  1.209603505177E+00
  1.224118747239E+00  1.238808172206E+00  1.253673870273E+00  1.268717956716E+00
  1.283942572196E+00  1.299349883063E+00  1.314942081660E+00  1.330721386639E+00
  1.346690043279E+00  1.362850323798E+00  1.379204527684E+00  1.395754982016E+00
  1.412504041800E+00  1.429454090302E+00  1.446607539386E+00  1.463966829858E+00
  1.481534431817E+00  1.499312844998E+00  1.517304599138E+00  1.535512254328E+00
  1.553938401380E+00  1.572585662197E+00  1.591456690143E+00  1.610554170425E+00
  1.629880820470E+00  1.649439390315E+00  1.669232662999E+00  1.689263454955E+00
  1.709534616415E+00  1.730049031812E+00  1.750809620193E+00  1.771819335636E+00
  1.793081167663E+00  1.814598141675E+00  1.836373319375E+00  1.858409799208E+00
  1.880710716798E+00  1.903279245400E+00  1.926118596345E+00  1.949232019501E+00
  1.972622803735E+00  1.996294277380E+00  2.020249808708E+00  2.044492806413E+00
  2.069026720090E+00  2.093855040731E+00  2.118981301219E+00  2.144409076834E+00
  2.170141985756E+00  2.196183689585E+00  2.222537893860E+00  2.249208348587E+00
  2.276198848770E+00  2.303513234955E+00  2.331155393774E+00  2.359129258500E+00
  2.387438809602E+00  2.416088075317E+00  2.445081132221E+00  2.474422105807E+00
  2.504115171077E+00  2.534164553130E+00  2.564574527767E+00  2.595349422101E+00
  2.626493615166E+00  2.658011538548E+00  2.689907677010E+00  2.722186569135E+00
  2.754852807964E+00  2.787911041660E+00  2.821365974160E+00  2.855222365850E+00
  2.889485034240E+00  2.924158854651E+00  2.959248760906E+00  2.994759746037E+00
  3.030696862990E+00  3.067065225346E+00  3.103870008050E+00  3.141116448146E+00
  3.178809845524E+00  3.216955563670E+00  3.255559030434E+00  3.294625738800E+00
  3.334161247665E+00  3.374171182637E+00  3.414661236829E+00  3.455637171671E+00
  3.497104817731E+00  3.539070075544E+00  3.581538916450E+00  3.624517383448E+00
  3.668011592049E+00  3.712027731154E+00  3.756572063927E+00  3.801650928694E+00
  3.847270739839E+00  3.893437988717E+00  3.940159244582E+00  3.987441155516E+00
  4.035290449383E+00  4.083713934775E+00  4.132718501993E+00  4.182311124016E+00
  4.232498857505E+00  4.283288843795E+00  4.334688309920E+00  4.386704569639E+00
  4.439345024475E+00  4.492617164769E+00  4.546528570746E+00  4.601086913595E+00
  4.656299956558E+00  4.712175556037E+00  4.768721662709E+00  4.825946322662E+00
  4.883857678534E+00  4.942463970676E+00  5.001773538324E+00  5.061794820784E+00
  5.122536358633E+00  5.184006794937E+00  5.246214876476E+00  5.309169454994E+00
  5.372879488454E+00  5.437354042315E+00  5.502602290823E+00  5.568633518313E+00
  5.635457120533E+00  5.703082605979E+00  5.771519597251E+00  5.840777832418E+00
  5.910867166407E+00  5.981797572404E+00  6.053579143273E+00  6.126222092992E+00
  6.199736758108E+00  6.274133599205E+00  6.349423202396E+00  6.425616280824E+00
  6.502723676194E+00  6.580756360309E+00  6.659725436632E+00  6.739642141872E+00
  6.820517847574E+00  6.902364061745E+00  6.985192430486E+00  7.069014739652E+00
  7.153842916528E+00  7.239689031526E+00  7.326565299904E+00  7.414484083503E+00
  7.503457892505E+00  7.593499387215E+00  7.684621379862E+00  7.776836836420E+00
  7.870158878457E+00  7.964600784999E+00  8.060175994419E+00  8.156898106352E+00
  8.254780883628E+00  8.353838254232E+00  8.454084313282E+00  8.555533325042E+00
  8.658199724942E+00  8.762098121642E+00  8.867243299101E+00  8.973650218691E+00
  9.081334021315E+00  9.190310029571E+00  9.300593749925E+00  9.412200874925E+00
  9.525147285424E+00  9.639449052849E+00  9.755122441483E+00  9.872183910781E+00
  9.990650117710E+00  1.011053791912E+01  1.023186437415E+01  1.035464674664E+01
  1.047890250760E+01  1.060464933769E+01  1.073190512975E+01  1.086068799130E+01
  1.099101624720E+01  1.112290844216E+01  1.125638334347E+01  1.139145994359E+01
  1.152815746291E+01  1.166649535247E+01  1.180649329670E+01  1.194817121626E+01
  1.209154927085E+01  1.223664786211E+01  1.238348763645E+01  1.253208948809E+01
  1.268247456194E+01  1.283466425669E+01  1.298868022777E+01  1.314454439050E+01
  1.330227892319E+01  1.346190627027E+01  1.362344914551E+01  1.378693053526E+01
  1.395237370168E+01  1.411980218610E+01  1.428923981233E+01  1.446071069008E+01
  1.463423921836E+01  1.480985008898E+01  1.498756829005E+01  1.516741910953E+01
  1.534942813884E+01  1.553362127651E+01  1.572002473183E+01  1.590866502861E+01
  1.609956900895E+01  1.629276383706E+01  1.648827700311E+01  1.668613632714E+01
  1.688636996307E+01  1.708900640263E+01  1.729407447946E+01  1.750160337321E+01
  1.771162261369E+01  1.792416208505E+01  1.813925203007E+01  1.835692305443E+01
  1.857720613109E+01  1.880013260466E+01  1.902573419592E+01  1.925404300627E+01
  1.948509152234E+01  1.971891262061E+01  1.995553957206E+01  2.019500604692E+01
  2.043734611949E+01  2.068259427292E+01  2.093078540419E+01  2.118195482905E+01
  2.143613828699E+01  2.169337194644E+01  2.195369240979E+01  2.221713671871E+01
  2.248374235934E+01  2.275354726765E+01  2.302658983486E+01  2.330290891288E+01
  2.358254381983E+01  2.386553434567E+01  2.415192075782E+01  2.444174380691E+01
  2.473504473260E+01  2.503186526939E+01  2.533224765262E+01  2.563623462445E+01
  2.594386943995E+01  2.625519587322E+01  2.657025822370E+01  2.688910132239E+01
  2.721177053826E+01  2.753831178472E+01  2.786877152613E+01  2.820319678445E+01
  2.854163514586E+01  2.888413476761E+01  2.923074438482E+01  2.958151331744E+01
  2.993649147725E+01  3.029572937497E+01  3.065927812747E+01  3.102718946500E+01
  3.139951573858E+01  3.177630992745E+01  3.215762564658E+01  3.254351715434E+01
  3.293403936019E+01  3.332924783251E+01  3.372919880650E+01  3.413394919218E+01
  3.454355658248E+01  3.495807926147E+01  3.537757621261E+01  3.580210712716E+01
  3.623173241269E+01  3.666651320164E+01  3.710651136006E+01  3.755178949638E+01
  3.800241097034E+01  3.845843990198E+01  3.891994118081E+01  3.938698047498E+01
  3.985962424068E+01  4.033793973156E+01  4.082199500834E+01  4.131185894844E+01
  4.180760125582E+01  4.230929247089E+01  4.281700398054E+01  4.333080802831E+01
  4.385077772465E+01  4.437698705735E+01
</grid-data>
</grid>
<valence-charge total-charge="15" is-unscreening-charge="yes"
 rescaled-to-z-pseudo="no">
<radfunc>
<data npts="458">
  1.005449195429E+01  1.005919365839E+01  1.007369962720E+01  1.009770518417E+01
  1.013106866344E+01  1.017491601128E+01  1.023076248370E+01  1.029466131854E+01
  1.036644453297E+01  1.045006902952E+01  1.054421662292E+01  1.064641396125E+01
  1.076973718355E+01  1.089831456295E+01  1.102653326637E+01  1.117394046673E+01
  1.134330915535E+01  1.150347948032E+01  1.168310438241E+01  1.188442336304E+01
  1.210989922626E+01  1.230947793552E+01  1.252773328839E+01  1.276626169009E+01
  1.302676235884E+01  1.331103585171E+01  1.362098006565E+01  1.387147744820E+01
  1.413839969344E+01  1.442263658938E+01  1.472509447097E+01  1.504669018518E+01
  1.538834359727E+01  1.575096840676E+01  1.613546101416E+01  1.654268715188E+01
  1.697346596481E+01  1.742855119897E+01  1.774577829770E+01  1.807427733727E+01
  1.841419285922E+01  1.876563910349E+01  1.912869540801E+01  1.950340118378E+01
  1.988975044416E+01  2.028768586903E+01  2.069709238737E+01  2.111779026548E+01
  2.154952769311E+01  2.199197286611E+01  2.244470557182E+01  2.290720829326E+01
  2.337885685968E+01  2.385891068491E+01  2.434650265118E+01  2.484062871533E+01
  2.534013733618E+01  2.584371884697E+01  2.634989492532E+01  2.685700834469E+01
  2.736321322637E+01  2.786646604925E+01  2.836451771521E+01  2.885490701132E+01
  2.933495585426E+01  2.980176674706E+01  3.025222292182E+01  3.047028479128E+01
  3.068299168227E+01  3.088989443061E+01  3.109053149484E+01  3.128442942345E+01
  3.147110340354E+01  3.165005789558E+01  3.182078735866E+01  3.198277707084E+01
  3.213550404870E+01  3.227843807022E+01  3.241104280463E+01  3.253277705268E+01
  3.264309610036E+01  3.274145318839E+01  3.282730109950E+01  3.290009386477E+01
  3.295928858941E+01  3.300434739782E+01  3.303473949649E+01  3.304994335275E+01
  3.304944898566E+01  3.303276036478E+01  3.299939791075E+01  3.294890109055E+01
  3.288083109860E+01  3.279477361362E+01  3.269034161924E+01  3.256717827499E+01
  3.242495982232E+01  3.226339850888E+01  3.208224551226E+01  3.188129384290E+01
  3.166038120424E+01  3.141939278618E+01  3.115826396710E+01  3.087698289756E+01
  3.057559293826E+01  3.025419492326E+01  2.991294921913E+01  2.955207754981E+01
  2.917186455710E+01  2.877265906657E+01  2.835487502941E+01  2.791899211143E+01
  2.746555590223E+01  2.699517771894E+01  2.650853398167E+01  2.600636514046E+01
  2.548947413697E+01  2.495872438816E+01  2.441503728339E+01  2.385938919127E+01
  2.329280797827E+01  2.271636904614E+01  2.213119090181E+01  2.153843027942E+01
  2.093927684058E+01  2.033494748562E+01  1.972668031476E+01  1.911572828474E+01
  1.850335261217E+01  1.789081598044E+01  1.727937561207E+01  1.667027627250E+01
  1.606474327470E+01  1.546397555650E+01  1.486913890367E+01  1.428135939206E+01
  1.370171712091E+01  1.313124030703E+01  1.257089980600E+01  1.202160412121E+01
  1.148419495566E+01  1.095944335398E+01  1.044804647367E+01  9.950625015520E+00
  9.467721333216E+00  8.999798232103E+00  8.547238456426E+00  8.110344854331E+00
  7.689341199896E+00  7.284373642264E+00  6.895512743596E+00  6.522756060386E+00
  6.166031216792E+00  5.825199414272E+00  5.500059319044E+00  5.190351267729E+00
  4.895762263341E+00  4.615933404468E+00  4.350469153327E+00  4.098942081168E+00
  3.860897544987E+00  3.635858365710E+00  3.423329414848E+00  3.222802074441E+00
  3.033758539591E+00  2.855675937310E+00  2.688030239469E+00  2.530299951265E+00
  2.381969559742E+00  2.242532906478E+00  2.111496942234E+00  1.988385425926E+00
  1.872740711211E+00  1.764125327524E+00  1.662123191920E+00  1.566340542020E+00
  1.476406559815E+00  1.391973689000E+00  1.312717644335E+00  1.238337113742E+00
  1.168552386681E+00  1.103100697928E+00  1.041729827881E+00  9.841981554090E-01
  9.302745721180E-01  8.797384086411E-01  8.323793215325E-01  7.879971447479E-01
  7.464017095650E-01  7.074126366752E-01  6.708591040211E-01  6.365795937933E-01
  6.044216218141E-01  5.742414523433E-01  5.459038011366E-01  5.192815293766E-01
  4.942553308847E-01  4.707134148091E-01  4.485511857789E-01  4.276709233149E-01
  4.079814621048E-01  3.893978745705E-01  3.718411570052E-01  3.552379204047E-01
  3.395200869943E-01  3.246245933292E-01  3.104931007415E-01  2.970717138068E-01
  2.843107074113E-01  2.721642629122E-01  2.605902138022E-01  2.495498012064E-01
  2.390074394653E-01  2.289304919802E-01  2.192890574287E-01  2.100557663880E-01
  2.012055883446E-01  1.927156490071E-01  1.845650577882E-01  1.767347452764E-01
  1.692073104739E-01  1.619668775444E-01  1.549989617836E-01  1.482903445026E-01
  1.418289564925E-01  1.356037697279E-01  1.296046969532E-01  1.238224987912E-01
  1.182486980109E-01  1.128755005887E-01  1.076957232023E-01  1.027027267999E-01
  9.789035589281E-02  9.325288322865E-02  8.878495951045E-02  8.448156783693E-02
  8.033798255001E-02  7.634973218692E-02  7.251256624567E-02  6.882242548499E-02
  6.527541549171E-02  6.186778326129E-02  5.859589654945E-02  5.545622576535E-02
  5.244532818958E-02  4.955983431256E-02  4.679643610170E-02  4.415187701822E-02
  4.162294361718E-02  3.920645857682E-02  3.689927501565E-02  3.469827196827E-02
  3.260035090265E-02  3.060243317333E-02  2.870145830908E-02  2.689438308704E-02
  2.517818124444E-02  2.354984383532E-02  2.200638013544E-02  2.054481904780E-02
  1.916221095802E-02  1.785562999110E-02  1.662217662235E-02  1.545898059465E-02
  1.436320409353E-02  1.333204512975E-02  1.236274107711E-02  1.145257231164E-02
  1.059886589701E-02  9.798999260562E-03  9.050403804945E-03  8.350568401919E-03
  7.697042717881E-03  7.087440324494E-03  6.519441552855E-03  5.990796055420E-03
  5.499325046359E-03  5.042923197788E-03  4.619560176323E-03  4.227281811270E-03
  3.864210892351E-03  3.528547601038E-03  3.218569585129E-03  2.932631691079E-03
  2.669165372763E-03  2.426677798704E-03  2.203750682459E-03  1.999038862687E-03
  1.811268660641E-03  1.639236043365E-03  1.481804620834E-03  1.337903504792E-03
  1.206525056047E-03  1.086722545728E-03  9.776077544089E-04  8.783485312095E-04
  7.881663330702E-04  7.063337623468E-04  6.321721188188E-04  5.650489801449E-04
  5.043758227981E-04  4.496056935900E-04  4.002309400918E-04  3.557810065917E-04
  3.158203007117E-04  2.799461344568E-04  2.477867422865E-04  2.189993777768E-04
  1.932684895886E-04  1.703039767491E-04  1.498395226848E-04  1.316310070000E-04
  1.154549936537E-04  1.011072939388E-04  8.840160248957E-05  7.716820442242E-05
  6.725275164048E-05  5.851510628330E-05  5.082824928066E-05  4.407725195573E-05
  3.815830861718E-05  3.297782807656E-05  2.845158202283E-05  2.450390818013E-05
  2.106696616681E-05  1.808004396373E-05  1.548891288969E-05  1.324522897183E-05
  1.130597859134E-05  9.632966281088E-06  8.192342552712E-06  6.954169638094E-06
  5.892023044567E-06  4.982626845091E-06  4.205520654716E-06  3.542756282623E-06
  2.978622094923E-06  2.499393176625E-06  2.093105441310E-06  1.749351903241E-06
  1.459099398082E-06  1.214524114267E-06  1.008864376300E-06  8.362892030945E-07
  6.917812477969E-07  5.710328097064E-07  4.703536928995E-07  3.865897693956E-07
  3.170511864882E-07  2.594492370225E-07  2.118409912103E-07  1.725808513963E-07
  1.402783021604E-07  1.137610738577E-07  9.204330018988E-08  7.429779224628E-08
  5.983213250350E-08  4.806813711556E-08  3.852419201395E-08  3.080010810303E-08
  2.456417749481E-08  1.954214077136E-08  1.550780823740E-08  1.227510845015E-08
  9.691364922104E-09  7.631626648218E-09  5.993900270117E-09  4.695151452905E-09
  3.667960608294E-09  2.857733640217E-09  2.220382097397E-09  1.720399168340E-09
  1.329268478464E-09  1.020902422369E-09  7.844181182396E-10  6.009652179274E-10
  4.590659338908E-10  3.496312639795E-10  2.654851065321E-10  2.009785927189E-10
  1.516784865401E-10  1.141162030873E-10  8.558628100892E-11  6.398507258560E-11
  4.768203479607E-11  3.541736151678E-11  2.622082933115E-11  1.934767111741E-11
  1.422807196084E-11  1.042752632945E-11  7.615825653183E-12  5.542880121082E-12
  4.019933578914E-12  2.905019392488E-12  2.091739475592E-12  1.500637997278E-12
  1.072593659343E-12  7.637766178876E-13  5.418137241304E-13  3.828834266937E-13
  2.695232432923E-13  1.889813222965E-13  1.319818484312E-13  9.180399856614E-14
  6.359752323171E-14  4.387618986313E-14  3.014437841820E-14  2.062295228275E-14
  1.404884130323E-14  9.529127976513E-15  6.435263568122E-15  4.326705261458E-15
  2.896030060933E-15  1.929657828703E-15  1.279868800875E-15  8.449570571785E-16
  5.552182098949E-16  3.631016231527E-16  2.363215639209E-16  1.530608545760E-16
  9.864729435256E-17  6.326169440460E-17  4.036501167418E-17  2.562428017084E-17
  1.618281185934E-17  1.016681878798E-17  6.353568391672E-18  3.949337745985E-18
  2.441613186344E-18  1.501229904684E-18  9.179239701119E-19  5.581185108231E-19
  3.374248457989E-19  2.028284884507E-19  1.212138109680E-19  7.201386831750E-20
  4.252950395693E-20  2.496568711243E-20  1.456613280699E-20  8.446186451481E-21
  4.866989914122E-21  2.786832904860E-21  1.585546584711E-21  8.962540106898E-22
  5.033071579528E-22  2.807701421515E-22  0.000000000000E+00  0.000000000000E+00
  0.000000000000E+00  0.000000000000E+00  0.000000000000E+00  0.000000000000E+00
  0.000000000000E+00  0.000000000000E+00  0.000000000000E+00  0.000000000000E+00
  0.000000000000E+00  0.000000000000E+00
</data>
</radfunc>
</valence-charge>
<pseudocore-charge matching-radius="0.444099195397"
 number-of-continuous-derivatives="4">
<annotation model-charge-form="Teter function with specified parameters" />
<radfunc>
<data npts="291">
  1.279170121788E+02  1.279002359354E+02  1.278484771037E+02  1.277628238561E+02
  1.276437833076E+02  1.274873404226E+02  1.272880922050E+02  1.270601231523E+02
  1.268040352222E+02  1.265057154885E+02  1.261698701814E+02  1.258053247374E+02
  1.253654394569E+02  1.249068295255E+02  1.244495112206E+02  1.239237623705E+02
  1.233196879860E+02  1.227484144498E+02  1.221077339266E+02  1.213896356142E+02
  1.205852972794E+02  1.198732558196E+02  1.190944649886E+02  1.182431659194E+02
  1.173132073649E+02  1.162980418798E+02  1.151907280433E+02  1.142953775203E+02
  1.133408541425E+02  1.123238229548E+02  1.112408497907E+02  1.100884135001E+02
  1.088629213829E+02  1.075607282684E+02  1.061781597077E+02  1.047115397803E+02
  1.031572240355E+02  1.015116381050E+02  1.003621605456E+02  9.916959125704E+01
  9.793298430724E+01  9.665144232322E+01  9.532412541365E+01  9.395026079763E+01
  9.252915315516E+01  9.106019570840E+01  8.954288203564E+01  8.797681861112E+01
  8.636173805354E+01  8.469751305426E+01  8.298417094188E+01  8.122190882446E+01
  7.941110923225E+01  7.755235616355E+01  7.564645141394E+01  7.369443104390E+01
  7.169758181288E+01  6.965745737832E+01  6.757589402669E+01  6.545502567060E+01
  6.329729781120E+01  6.110548013028E+01  5.888267734055E+01  5.663233788862E+01
  5.435826007201E+01  5.206459510266E+01  4.975584662430E+01  4.859731880048E+01
  4.743686617334E+01  4.627514804919E+01  4.511284406356E+01  4.395065360974E+01
  4.278929517595E+01  4.162950558754E+01  4.047203915064E+01  3.931766669430E+01
  3.816717450788E+01  3.702136317124E+01  3.588104627548E+01  3.474704903227E+01
  3.362020677058E+01  3.250136331980E+01  3.139136927918E+01  3.029108017379E+01
  2.920135449830E+01  2.812305165025E+01  2.705702975561E+01  2.600414339006E+01
  2.496524120064E+01  2.394116343300E+01  2.293273937094E+01  2.194078469570E+01
  2.096609877381E+01  2.000946188316E+01  1.907163238852E+01  1.815334387869E+01
  1.725530227861E+01  1.637818295117E+01  1.552262780459E+01  1.468924242222E+01
  1.387859323296E+01  1.309120474133E+01  1.232755683747E+01  1.158808220778E+01
  1.087316386810E+01  1.018313284166E+01  9.518266004506E+00  8.878784121446E+00
  8.264850095469E+00  7.676567453527E+00  7.113979091043E+00  6.577066296817E+00
  6.065748079008E+00  5.579880811533E+00  5.119258218618E+00  4.683611713239E+00
  4.272611102906E+00  3.885865673586E+00  3.522925659570E+00  3.183284103795E+00
  2.866379109457E+00  2.571596479899E+00  2.298272739490E+00  2.045698523861E+00
  1.813122323257E+00  1.599754558037E+00  1.404771960575E+00  1.227322233068E+00
  1.066528946034E+00  9.214966377770E-01  7.913160708466E-01  6.750695975916E-01
  5.718365834671E-01  4.806988338435E-01  4.007459678158E-01  3.310806809952E-01
  2.708238385902E-01  2.191193403146E-01  1.751386998684E-01  1.380852839822E-01
  1.071981593130E-01  8.175549986246E-02  6.107751302535E-02  4.452884884030E-02
  3.152046443054E-02  2.151092389617E-02  1.400712291897E-02  8.564436908056E-03
  4.786301462580E-03  2.323244040085E-03  8.713957612847E-04  1.705219989193E-04
  1.619525783687E-06  1.841362668739E-04  5.728768500356E-04  1.054662930676E-03
  1.544821455837E-03  1.983576443321E-03  2.332420339895E-03  2.570539501015E-03
  2.691364778015E-03  2.699312652060E-03  2.606774935868E-03  2.431405968140E-03
  2.193745719311E-03  1.915205646414E-03  1.616431874375E-03  1.316047782134E-03
  1.029765805434E-03  7.698467147470E-04  5.448742556188E-04  3.598042824885E-04
  2.162407494083E-04  1.128864326457E-04  4.611423884850E-05  1.060546704576E-05
  4.382434137863E-09  7.543730693881E-06  2.660305084403E-05  5.117039405711E-05
  7.618779306127E-05  9.777095497361E-05  1.133035446662E-04  1.214154737930E-04
  1.218622556497E-04  1.153282684839E-04  1.031803641418E-04  8.719950224028E-05
  6.931699966255E-05  5.137876184542E-05  3.495587807013E-05  2.121373315706E-05
  1.084492882783E-05  4.064482496564E-06  6.596276722232E-07  8.164910506512E-08
  1.563982080946E-06  4.249541186325E-06  7.310960215548E-06  1.004994399923E-05
  1.196587642620E-05  1.278865982181E-05  1.247584651200E-05  1.117881299116E-05
  9.186434272975E-06  6.856996262335E-06  4.549695758433E-06  2.566017207848E-06
  1.108778661100E-06  2.631492244305E-07  4.013740768437E-11  0.000000000000E+00
  0.000000000000E+00  0.000000000000E+00  0.000000000000E+00  0.000000000000E+00
  0.000000000000E+00  0.000000000000E+00  0.000000000000E+00  0.000000000000E+00
  0.000000000000E+00  0.000000000000E+00  0.000000000000E+00  0.000000000000E+00
  0.000000000000E+00  0.000000000000E+00  0.000000000000E+00  0.000000000000E+00
  0.000000000000E+00  0.000000000000E+00  0.000000000000E+00  0.000000000000E+00
  0.000000000000E+00  0.000000000000E+00  0.000000000000E+00  0.000000000000E+00
  0.000000000000E+00  0.000000000000E+00  0.000000000000E+00  0.000000000000E+00
  0.000000000000E+00  0.000000000000E+00  0.000000000000E+00  0.000000000000E+00
  0.000000000000E+00  0.000000000000E+00  0.000000000000E+00  0.000000000000E+00
  0.000000000000E+00  0.000000000000E+00  0.000000000000E+00  0.000000000000E+00
  0.000000000000E+00  0.000000000000E+00  0.000000000000E+00  0.000000000000E+00
  0.000000000000E+00  0.000000000000E+00  0.000000000000E+00  0.000000000000E+00
  0.000000000000E+00  0.000000000000E+00  0.000000000000E+00  0.000000000000E+00
  0.000000000000E+00  0.000000000000E+00  0.000000000000E+00  0.000000000000E+00
  0.000000000000E+00  0.000000000000E+00  0.000000000000E+00  0.000000000000E+00
  0.000000000000E+00  0.000000000000E+00  0.000000000000E+00  0.000000000000E+00
  0.000000000000E+00  0.000000000000E+00  0.000000000000E+00  0.000000000000E+00
  0.000000000000E+00  0.000000000000E+00  0.000000000000E+00  0.000000000000E+00
  0.000000000000E+00  0.000000000000E+00  0.000000000000E+00  0.000000000000E+00
  0.000000000000E+00  0.000000000000E+00  0.000000000000E+00
</data>
</radfunc>
</pseudocore-charge>
<semilocal-potentials set="scalar_relativistic">
<slps n="3" l="s" rc="1.41250404180" eref="-3.14736805904">
<radfunc>
<data npts="291">
 -1.850162245079E+01 -1.850187926851E+01 -1.850267141336E+01 -1.850398202383E+01
 -1.850580297185E+01 -1.850819511812E+01 -1.851124024482E+01 -1.851472217667E+01
 -1.851863085483E+01 -1.852318045275E+01 -1.852829759501E+01 -1.853384629895E+01
 -1.854053373797E+01 -1.854749644199E+01 -1.855442989288E+01 -1.856238881063E+01
 -1.857151740105E+01 -1.858013435199E+01 -1.858977953088E+01 -1.860056640350E+01
 -1.861261841083E+01 -1.862326032027E+01 -1.863487018549E+01 -1.864752494491E+01
 -1.866130521652E+01 -1.867629487784E+01 -1.869258045635E+01 -1.870569818659E+01
 -1.871963212383E+01 -1.873441973363E+01 -1.875009795894E+01 -1.876670273117E+01
 -1.878426838884E+01 -1.880282699120E+01 -1.882240751319E+01 -1.884303490657E+01
 -1.886472901125E+01 -1.888750329942E+01 -1.890328942638E+01 -1.891955776366E+01
 -1.893630562480E+01 -1.895352795750E+01 -1.897121706009E+01 -1.898936227499E+01
 -1.900794965792E+01 -1.902696162213E+01 -1.904637655642E+01 -1.906616841643E+01
 -1.908630628832E+01 -1.910675392455E+01 -1.912746925142E+01 -1.914840384851E+01
 -1.916950240027E+01 -1.919070212061E+01 -1.921193215169E+01 -1.923311293848E+01
 -1.925415558158E+01 -1.927496117096E+01 -1.929542010453E+01 -1.931541139567E+01
 -1.933480197530E+01 -1.935344599446E+01 -1.937118413472E+01 -1.938784293465E+01
 -1.940323414170E+01 -1.941715409978E+01 -1.942938318431E+01 -1.943479052416E+01
 -1.943968529705E+01 -1.944403534586E+01 -1.944780743462E+01 -1.945096724007E+01
 -1.945347934497E+01 -1.945530723329E+01 -1.945641328730E+01 -1.945675878691E+01
 -1.945630391114E+01 -1.945500774200E+01 -1.945282827090E+01 -1.944972240760E+01
 -1.944564599198E+01 -1.944055380861E+01 -1.943439960432E+01 -1.942713610879E+01
 -1.941871505837E+01 -1.940908722309E+01 -1.939820243706E+01 -1.938600963227E+01
 -1.937245687574E+01 -1.935749141036E+01 -1.934105969904E+01 -1.932310747260E+01
 -1.930357978100E+01 -1.928242104821E+01 -1.925957513049E+01 -1.923498537804E+01
 -1.920859469998E+01 -1.918034563254E+01 -1.915018041031E+01 -1.911804104040E+01
 -1.908386937938E+01 -1.904760721281E+01 -1.900919633705E+01 -1.896857864338E+01
 -1.892569620385E+01 -1.888049135903E+01 -1.883290680708E+01 -1.878288569412E+01
 -1.873037170568E+01 -1.867530915885E+01 -1.861764309530E+01 -1.855731937471E+01
 -1.849428476875E+01 -1.842848705562E+01 -1.835987511509E+01 -1.828839902434E+01
 -1.821401015481E+01 -1.813666127057E+01 -1.805630662867E+01 -1.797290208218E+01
 -1.788640518697E+01 -1.779677531315E+01 -1.770397376260E+01 -1.760796389420E+01
 -1.750871125842E+01 -1.740618374362E+01 -1.730035173624E+01 -1.719118829787E+01
 -1.707866936214E+01 -1.696277395503E+01 -1.684348444244E+01 -1.672078680948E+01
 -1.659467097621E+01 -1.646513115533E+01 -1.633216625758E+01 -1.619578035170E+01
 -1.605598318590E+01 -1.591279077909E+01 -1.576622609064E+01 -1.561631977845E+01
 -1.546311105608E+01 -1.530664866089E+01 -1.514699194612E+01 -1.498421211131E+01
 -1.481839358637E+01 -1.464963558618E+01 -1.447805385328E+01 -1.430378260740E+01
 -1.412697672054E+01 -1.394781413655E+01 -1.376649855247E+01 -1.358326237720E+01