<?xml version="1.0" encoding="UTF-8" ?>
<psml version="1.1" energy_unit="hartree" length_unit="bohr"
 uuid="5bad8140-1d65-11e8-5d7d-af0dfef5be01"
 xmlns="http://esl.cecam.org/PSML/ns/1.1">
<provenance creator="ONCVPSP-3.3.0+psml-3.3.0-73 (scalar-relativistic)"
 date="2018-03-01">
<annotation action="semilocal-pseudopotential-generation"
 action-cont="projectors-generation" />
<input-file name="oncvpsp-input">
<![CDATA[# atsym z nc nv iexc psfile
Mn 25 3 4 -116133 upf
# n l f
1 0 2.0
2 0 2.0
2 1 6.0
3 0 2.0
3 1 6.0
3 2 5.0
4 0 2.0
# lmax
2
# l rc ep ncon nbas qcut
0 1.1 0.0 4 7 11.0
1 1.1 0.0 4 7 10.8
2 1.35 0.0 4 7 11.4
# lloc lpopt rc5 dvloc0
4 5 1.1 0.0
# l nproj debl
0 2 1.0
1 2 1.0
2 2 1.0
# icmod fcfact
3 4 1.75
# epsh1 epsh2 depsh
-50.0 12.0 0.02
# rlmax drl
6.0 0.01
 0
]]>
</input-file>
</provenance>
<pseudo-atom-spec atomic-label="Mn" atomic-number="25" z-pseudo="15"
 flavor="Hamann&apos;s oncvpsp" relativity="scalar" spin-dft="no"
 core-corrections="yes">
<annotation pseudo-energy="-103.857210717" />
<exchange-correlation>
<annotation oncvpsp-xc-code="-116133" oncvpsp-xc-type="libxc-interface" />
<libxc-info number-of-functionals="2">
<functional name="Perdew, Burke &amp; Ernzerhof SOL (GGA)" type="exchange"
 id="116" />
<functional name="Perdew, Burke &amp; Ernzerhof SOL (GGA)" type="correlation"
 id="133" />
</libxc-info>
</exchange-correlation>
<valence-configuration total-valence-charge="15">
<shell n="3" l="s" occupation="2" />
<shell n="3" l="p" occupation="6" />
<shell n="3" l="d" occupation="5" />
<shell n="4" l="s" occupation="2" />
</valence-configuration>
</pseudo-atom-spec>
<grid npts="458">
<annotation type="sampled from oncvpsp log grid"
 recipe="r(i:1..N) = r1*exp(a*(i-1)) + r=0; resampled"
 recipe-cont="r1: scale; a: step" scale="0.200000000000E-04"
 step="0.119285708653E-01" delta="0.500000000000E-02" rmax="44.3769870573" />
<grid-data>
  0.000000000000E+00  5.007342349535E-03  1.012179466165E-02  1.518430601833E-02
  2.021749050673E-02  2.536045174936E-02  3.069341316587E-02  3.584196802331E-02
  4.086744488362E-02  4.604501413403E-02  5.126337829839E-02  5.639639233938E-02
  6.204337627505E-02  6.744643678951E-02  7.245061657011E-02  7.782608083168E-02
  8.360037697896E-02  8.873823744356E-02  9.419185737129E-02  9.998064251273E-02
  1.061251912451E-01  1.113116283280E-01  1.167515314288E-01  1.224572876681E-01
  1.284418895367E-01  1.347189644807E-01  1.413028059321E-01  1.464509939291E-01
  1.517867496073E-01  1.573169067565E-01  1.630485481470E-01  1.689890146010E-01
  1.751459143940E-01  1.815271329993E-01  1.881408431876E-01  1.949955154940E-01
  2.020999290667E-01  2.094631829112E-01  2.145204619994E-01  2.196998440339E-01
  2.250042770683E-01  2.304367803338E-01  2.360004459582E-01  2.416984407254E-01
  2.475340078783E-01  2.535104689645E-01  2.596312257271E-01  2.658997620411E-01
  2.723196458958E-01  2.788945314263E-01  2.856281609931E-01  2.925243673121E-01
  2.995870756365E-01  3.068203059907E-01  3.142281754585E-01  3.218149005268E-01
  3.295847994851E-01  3.375422948838E-01  3.456919160515E-01  3.540383016727E-01
  3.625862024283E-01  3.713404836997E-01  3.803061283381E-01  3.894882395007E-01
  3.988920435552E-01  4.085228930548E-01  4.183862697847E-01  4.234069050222E-01
  4.284877878824E-01  4.336296413370E-01  4.388331970331E-01  4.440991953975E-01
  4.494283857422E-01  4.548215263711E-01  4.602793846876E-01  4.658027373038E-01
  4.713923701515E-01  4.770490785933E-01  4.827736675364E-01  4.885669515469E-01
  4.944297549654E-01  5.003629120250E-01  5.063672669693E-01  5.124436741729E-01
  5.185929982630E-01  5.248161142422E-01  5.311139076131E-01  5.374872745044E-01
  5.439371217985E-01  5.504643672601E-01  5.570699396672E-01  5.637547789432E-01
  5.705198362905E-01  5.773660743260E-01  5.842944672179E-01  5.913060008245E-01
  5.984016728344E-01  6.055824929084E-01  6.128494828233E-01  6.202036766172E-01
  6.276461207366E-01  6.351778741855E-01  6.428000086757E-01  6.505136087798E-01
  6.583197720852E-01  6.662196093502E-01  6.742142446624E-01  6.823048155983E-01
  6.904924733855E-01  6.987783830661E-01  7.071637236629E-01  7.156496883469E-01
  7.242374846070E-01  7.329283344223E-01  7.417234744354E-01  7.506241561286E-01
  7.596316460022E-01  7.687472257542E-01  7.779721924632E-01  7.873078587728E-01
  7.967555530781E-01  8.063166197150E-01  8.159924191516E-01  8.257843281814E-01
  8.356937401196E-01  8.457220650010E-01  8.558707297810E-01  8.661411785384E-01
  8.765348726809E-01  8.870532911530E-01  8.976979306469E-01  9.084703058146E-01
  9.193719494844E-01  9.304044128782E-01  9.415692658328E-01  9.528680970228E-01
  9.643025141870E-01  9.758741443573E-01  9.875846340896E-01  9.994356496986E-01
  1.011428877495E+00  1.023566024025E+00  1.035848816313E+00  1.048279002109E+00
  1.060858350134E+00  1.073588650336E+00  1.086471714140E+00  1.099509374710E+00
  1.112703487206E+00  1.126055929053E+00  1.139568600201E+00  1.153243423404E+00
  1.167082344485E+00  1.181087332618E+00  1.195260380610E+00  1.209603505177E+00
  1.224118747239E+00  1.238808172206E+00  1.253673870273E+00  1.268717956716E+00
  1.283942572196E+00  1.299349883063E+00  1.314942081660E+00  1.330721386639E+00
  1.346690043279E+00  1.362850323798E+00  1.379204527684E+00  1.395754982016E+00
  1.412504041800E+00  1.429454090302E+00  1.446607539386E+00  1.463966829858E+00
  1.481534431817E+00  1.499312844998E+00  1.517304599138E+00  1.535512254328E+00
  1.553938401380E+00  1.572585662197E+00  1.591456690143E+00  1.610554170425E+00
  1.629880820470E+00  1.649439390315E+00  1.669232662999E+00  1.689263454955E+00
  1.709534616415E+00  1.730049031812E+00  1.750809620193E+00  1.771819335636E+00
  1.793081167663E+00  1.814598141675E+00  1.836373319375E+00  1.858409799208E+00
  1.880710716798E+00  1.903279245400E+00  1.926118596345E+00  1.949232019501E+00
  1.972622803735E+00  1.996294277380E+00  2.020249808708E+00  2.044492806413E+00
  2.069026720090E+00  2.093855040731E+00  2.118981301219E+00  2.144409076834E+00
  2.170141985756E+00  2.196183689585E+00  2.222537893860E+00  2.249208348587E+00
  2.276198848770E+00  2.303513234955E+00  2.331155393774E+00  2.359129258500E+00
  2.387438809602E+00  2.416088075317E+00  2.445081132221E+00  2.474422105807E+00
  2.504115171077E+00  2.534164553130E+00  2.564574527767E+00  2.595349422101E+00
  2.626493615166E+00  2.658011538548E+00  2.689907677010E+00  2.722186569135E+00
  2.754852807964E+00  2.787911041660E+00  2.821365974160E+00  2.855222365850E+00
  2.889485034240E+00  2.924158854651E+00  2.959248760906E+00  2.994759746037E+00
  3.030696862990E+00  3.067065225346E+00  3.103870008050E+00  3.141116448146E+00
  3.178809845524E+00  3.216955563670E+00  3.255559030434E+00  3.294625738800E+00
  3.334161247665E+00  3.374171182637E+00  3.414661236829E+00  3.455637171671E+00
  3.497104817731E+00  3.539070075544E+00  3.581538916450E+00  3.624517383448E+00
  3.668011592049E+00  3.712027731154E+00  3.756572063927E+00  3.801650928694E+00
  3.847270739839E+00  3.893437988717E+00  3.940159244582E+00  3.987441155516E+00
  4.035290449383E+00  4.083713934775E+00  4.132718501993E+00  4.182311124016E+00
  4.232498857505E+00  4.283288843795E+00  4.334688309920E+00  4.386704569639E+00
  4.439345024475E+00  4.492617164769E+00  4.546528570746E+00  4.601086913595E+00
  4.656299956558E+00  4.712175556037E+00  4.768721662709E+00  4.825946322662E+00
  4.883857678534E+00  4.942463970676E+00  5.001773538324E+00  5.061794820784E+00
  5.122536358633E+00  5.184006794937E+00  5.246214876476E+00  5.309169454994E+00
  5.372879488454E+00  5.437354042315E+00  5.502602290823E+00  5.568633518313E+00
  5.635457120533E+00  5.703082605979E+00  5.771519597251E+00  5.840777832418E+00
  5.910867166407E+00  5.981797572404E+00  6.053579143273E+00  6.126222092992E+00
  6.199736758108E+00  6.274133599205E+00  6.349423202396E+00  6.425616280824E+00
  6.502723676194E+00  6.580756360309E+00  6.659725436632E+00  6.739642141872E+00
  6.820517847574E+00  6.902364061745E+00  6.985192430486E+00  7.069014739652E+00
  7.153842916528E+00  7.239689031526E+00  7.326565299904E+00  7.414484083503E+00
  7.503457892505E+00  7.593499387215E+00  7.684621379862E+00  7.776836836420E+00
  7.870158878457E+00  7.964600784999E+00  8.060175994419E+00  8.156898106352E+00
  8.254780883628E+00  8.353838254232E+00  8.454084313282E+00  8.555533325042E+00
  8.658199724942E+00  8.762098121642E+00  8.867243299101E+00  8.973650218691E+00
  9.081334021315E+00  9.190310029571E+00  9.300593749925E+00  9.412200874925E+00
  9.525147285424E+00  9.639449052849E+00  9.755122441483E+00  9.872183910781E+00
  9.990650117710E+00  1.011053791912E+01  1.023186437415E+01  1.035464674664E+01
  1.047890250760E+01  1.060464933769E+01  1.073190512975E+01  1.086068799130E+01
  1.099101624720E+01  1.112290844216E+01  1.125638334347E+01  1.139145994359E+01
  1.152815746291E+01  1.166649535247E+01  1.180649329670E+01  1.194817121626E+01
  1.209154927085E+01  1.223664786211E+01  1.238348763645E+01  1.253208948809E+01
  1.268247456194E+01  1.283466425669E+01  1.298868022777E+01  1.314454439050E+01
  1.330227892319E+01  1.346190627027E+01  1.362344914551E+01  1.378693053526E+01
  1.395237370168E+01  1.411980218610E+01  1.428923981233E+01  1.446071069008E+01
  1.463423921836E+01  1.480985008898E+01  1.498756829005E+01  1.516741910953E+01
  1.534942813884E+01  1.553362127651E+01  1.572002473183E+01  1.590866502861E+01
  1.609956900895E+01  1.629276383706E+01  1.648827700311E+01  1.668613632714E+01
  1.688636996307E+01  1.708900640263E+01  1.729407447946E+01  1.750160337321E+01
  1.771162261369E+01  1.792416208505E+01  1.813925203007E+01  1.835692305443E+01
  1.857720613109E+01  1.880013260466E+01  1.902573419592E+01  1.925404300627E+01
  1.948509152234E+01  1.971891262061E+01  1.995553957206E+01  2.019500604692E+01
  2.043734611949E+01  2.068259427292E+01  2.093078540419E+01  2.118195482905E+01
  2.143613828699E+01  2.169337194644E+01  2.195369240979E+01  2.221713671871E+01
  2.248374235934E+01  2.275354726765E+01  2.302658983486E+01  2.330290891288E+01
  2.358254381983E+01  2.386553434567E+01  2.415192075782E+01  2.444174380691E+01
  2.473504473260E+01  2.503186526939E+01  2.533224765262E+01  2.563623462445E+01
  2.594386943995E+01  2.625519587322E+01  2.657025822370E+01  2.688910132239E+01
  2.721177053826E+01  2.753831178472E+01  2.786877152613E+01  2.820319678445E+01
  2.854163514586E+01  2.888413476761E+01  2.923074438482E+01  2.958151331744E+01
  2.993649147725E+01  3.029572937497E+01  3.065927812747E+01  3.102718946500E+01
  3.139951573858E+01  3.177630992745E+01  3.215762564658E+01  3.254351715434E+01
  3.293403936019E+01  3.332924783251E+01  3.372919880650E+01  3.413394919218E+01
  3.454355658248E+01  3.495807926147E+01  3.537757621261E+01  3.580210712716E+01
  3.623173241269E+01  3.666651320164E+01  3.710651136006E+01  3.755178949638E+01
  3.800241097034E+01  3.845843990198E+01  3.891994118081E+01  3.938698047498E+01
  3.985962424068E+01  4.033793973156E+01  4.082199500834E+01  4.131185894844E+01
  4.180760125582E+01  4.230929247089E+01  4.281700398054E+01  4.333080802831E+01
  4.385077772465E+01  4.437698705735E+01
</grid-data>
</grid>
<valence-charge total-charge="15" is-unscreening-charge="yes"
 rescaled-to-z-pseudo="no">
<radfunc>
<data npts="458">
  1.697749924382E+00  1.703127798480E+00  1.719724635260E+00  1.747205810375E+00
  1.785431824670E+00  1.835726278505E+00  1.899877110363E+00  1.973405220926E+00
  2.056167855183E+00  2.152798582142E+00  2.261866072566E+00  2.380590078832E+00
  2.524313653012E+00  2.674691133968E+00  2.825186338213E+00  2.998863852342E+00
  3.199284197523E+00  3.389668825862E+00  3.604154396042E+00  3.845764180923E+00
  4.117886241261E+00  4.360085228365E+00  4.626370982548E+00  4.919077874440E+00
  5.240744756467E+00  5.594125522313E+00  5.982197625049E+00  6.297938075189E+00
  6.636428953484E+00  6.999179727927E+00  7.387769165802E+00  7.803841055085E+00
  8.249097712364E+00  8.725290781473E+00  9.234208747590E+00  9.777660505931E+00
  1.035745423411E+01  1.097537072584E+01  1.140934754604E+01  1.186152109897E+01
  1.233235195921E+01  1.282226754438E+01  1.333165415886E+01  1.386084809256E+01
  1.441012571285E+01  1.497969249265E+01  1.556967092459E+01  1.618008728126E+01
  1.681085719516E+01  1.746177004939E+01  1.813247219230E+01  1.882244901675E+01
  1.953100597787E+01  2.025724866258E+01  2.100006207088E+01  2.175808932271E+01
  2.252971006502E+01  2.331301892332E+01  2.410580441711E+01  2.490552884197E+01
  2.570930970848E+01  2.651390342008E+01  2.731569196470E+01  2.811067348570E+01
  2.889445768262E+01  2.966226706577E+01  3.040894514534E+01  3.077264872316E+01
  3.112897266852E+01  3.147717455705E+01  3.181649301851E+01  3.214614910642E+01
  3.246534785049E+01  3.277327999808E+01  3.306912395029E+01  3.335204789711E+01
  3.362121215506E+01  3.387577170941E+01  3.411487896171E+01  3.433768668179E+01
  3.454335116145E+01  3.473103556541E+01  3.489991347293E+01  3.504917260119E+01
  3.517801869928E+01  3.528567959931E+01  3.537140940815E+01  3.543449282127E+01
  3.547424953667E+01  3.549003874491E+01  3.548126366775E+01  3.544737611575E+01
  3.538788103216E+01  3.530234098802E+01  3.519038059103E+01  3.505169076849E+01
  3.488603288286E+01  3.469324263667E+01  3.447323372273E+01  3.422600117423E+01
  3.395162436972E+01  3.365026964766E+01  3.332219248644E+01  3.296773920709E+01
  3.258734815802E+01  3.218155034422E+01  3.175096946649E+01  3.129632134099E+01
  3.081841267400E+01  3.031813917263E+01  2.979648297866E+01  2.925450941916E+01
  2.869336307562E+01  2.811426318054E+01  2.751849835918E+01  2.690742074228E+01
  2.628243948427E+01  2.564501372983E+01  2.499664508000E+01  2.433886961691E+01
  2.367324955342E+01  2.300136458091E+01  2.232480299370E+01  2.164515267408E+01
  2.096399202478E+01  2.028288093873E+01  1.960335189670E+01  1.892690128307E+01
  1.825498100826E+01  1.758899052326E+01  1.693026930690E+01  1.628008990084E+01
  1.563965156021E+01  1.501007457952E+01  1.439239534496E+01  1.378756215406E+01
  1.319643183404E+01  1.261976717974E+01  1.205823522160E+01  1.151240632430E+01
  1.098275410672E+01  1.046965616510E+01  9.973395572639E+00  9.494163121537E+00
  9.032060266850E+00  8.587102726081E+00  8.159224683912E+00  7.748283548007E+00
  7.354065199262E+00  6.976291026650E+00  6.614630935023E+00  6.268719973977E+00
  5.938164821922E+00  5.622547778122E+00  5.321432129758E+00  5.034366953152E+00
  4.760891669372E+00  4.500540325119E+00  4.252845568028E+00  4.017342286742E+00
  3.793570887198E+00  3.581080177824E+00  3.379429838090E+00  3.188192447167E+00
  3.006955052545E+00  2.835320262399E+00  2.672905841268E+00  2.519339875048E+00
  2.374253487485E+00  2.237281990942E+00  2.108065813202E+00  1.986251399064E+00
  1.871492018756E+00  1.763448486033E+00  1.661789789088E+00  1.566193637660E+00
  1.476346929944E+00  1.391946143086E+00  1.312697651178E+00  1.238317974798E+00
  1.168533966208E+00  1.103082934398E+00  1.041712714150E+00  9.841816833558E-01
  9.302587327469E-01  8.797231921721E-01  8.323647174892E-01  7.879831420393E-01
  7.463882965625E-01  7.073998012832E-01  6.708468337436E-01  6.365678757954E-01
  6.044104429787E-01  5.742307993231E-01  5.458936604023E-01  5.192718872608E-01
  4.942461736222E-01  4.707047285732E-01  4.485429567147E-01  4.276631375695E-01
  4.079741058539E-01  3.893909340435E-01  3.718346185066E-01  3.552317703340E-01
  3.395143118639E-01  3.246191797800E-01  3.104880355571E-01  2.970669839267E-01
  2.843062999420E-01  2.721601651380E-01  2.605864131941E-01  2.495462854314E-01
  2.390041963938E-01  2.289275096935E-01  2.192863242254E-01  2.100532707905E-01
  2.012033191049E-01  1.927135951119E-01  1.845632084641E-01  1.767330899949E-01
  1.692058389554E-01  1.619655797624E-01  1.549978279689E-01  1.482893651463E-01
  1.418281223497E-01  1.356030718205E-01  1.296041265722E-01  1.238220474996E-01
  1.182483576451E-01  1.128752632602E-01  1.076955812992E-01  1.027026729875E-01
  9.789038311396E-02  9.325298470407E-02  8.878512873814E-02  8.448179859139E-02
  8.033826888105E-02  7.635006841797E-02  7.251294697168E-02  6.882284556988E-02
  6.527587006542E-02  6.186826771642E-02  5.859640653739E-02  5.545675719213E-02
  5.244587721124E-02  4.956039733014E-02  4.679700975590E-02  4.415245818372E-02
  4.162352939658E-02  3.920704629428E-02  3.689986221029E-02  3.469885638724E-02
  3.260093049398E-02  3.060300607855E-02  2.870202285567E-02  2.689493778067E-02
  2.517872476107E-02  2.355037501323E-02  2.200689796709E-02  2.054532267170E-02
  1.916269965051E-02  1.785610315817E-02  1.662263379146E-02  1.545942140660E-02
  1.436362829445E-02  1.333245256317E-02  1.236313167618E-02  1.145294609156E-02
  1.059922294760E-02  9.799339739117E-03  9.050727929274E-03  8.350876443713E-03
  7.697334996340E-03  7.087717200257E-03  6.519703422246E-03  5.991043345027E-03
  5.499558207936E-03  5.043142703497E-03  4.619766514318E-03  4.227475481602E-03
  3.864392403215E-03  3.528717465340E-03  3.218728317369E-03  2.932779804538E-03
  2.669303376980E-03  2.426806197237E-03  2.203869970911E-03  1.999149526976E-03
  1.811371175516E-03  1.639330871129E-03  1.481892210283E-03  1.337984290335E-03
  1.206599457001E-03  1.086790965776E-03  9.776705811951E-04  8.784061360730E-04
  7.882190708929E-04  7.063819715087E-04  6.322161212476E-04  5.650890814510E-04
  5.044123124829E-04  4.496388453195E-04  4.002610120273E-04  3.558082417688E-04
  3.158449274614E-04  2.799683668615E-04  2.478067806648E-04  2.190174091917E-04
  1.932846883740E-04  1.703185050496E-04  1.498525310048E-04  1.316426347577E-04
  1.154653697372E-04  1.011165372598E-04  8.840982253267E-05  7.717550178718E-05
  6.725921857311E-05  5.852082719665E-05  5.083330126023E-05  4.408170525009E-05
  3.816222711151E-05  3.298126974809E-05  2.845459937722E-05  2.450654866817E-05
  2.106927258087E-05  1.808205481368E-05  1.549066275813E-05  1.324674884863E-05
  1.130729618777E-05  9.634106323747E-06  8.193327057678E-06  6.955018165929E-06
  5.892752936690E-06  4.983253442268E-06  4.206057498392E-06  3.543215299913E-06
  2.979013768076E-06  2.499726697821E-06  2.093388853655E-06  1.749592228819E-06
  1.459302753932E-06  1.214695817119E-06  1.009009036908E-06  8.364108109512E-07
  6.918832470163E-07  5.711181667955E-07  4.704249571293E-07  3.866491264304E-07
  3.171005058975E-07  2.594901142598E-07  2.118747846022E-07  1.726087146481E-07
  1.403012128467E-07  1.137798583171E-07  9.205865524098E-08  7.431030405613E-08
  5.984229294017E-08  4.807635800180E-08  3.853081689229E-08  3.063603331742E-08
  2.443833281519E-08  1.944589766017E-08  1.543441963313E-08  1.221931367222E-08
  9.649074162302E-09  7.599669746012E-09  5.969827259824E-09  4.677074682836E-09
  3.654430141739E-09  2.847639220798E-09  2.212876252417E-09  1.714837076818E-09
  1.325161114928E-09  1.021129644096E-09  7.845950393524E-10  6.011025713854E-10
  4.591722540185E-10  3.497133166930E-10  2.655482396682E-10  2.010270204260E-10
  1.517155194235E-10  1.141444338723E-10  8.560773384387E-11  6.400132272236E-11
  4.769430421499E-11  3.542659508249E-11  2.622775524314E-11  1.935284873462E-11
  1.423192951023E-11  1.043039053739E-11  7.617944949887E-12  5.544442749036E-12
  4.021081674975E-12  2.905859900079E-12  2.092352570280E-12  1.501083568825E-12
  1.072916280297E-12  7.640093379952E-13  5.419809572196E-13  3.830031387742E-13
  2.696086046779E-13  1.890419502121E-13  1.320247379587E-13  9.183421733807E-14
  6.361872775460E-14  4.389100771686E-14  3.015469001447E-14  2.063009771859E-14
  1.405377158716E-14  9.532515118539E-15  6.437580379959E-15  4.328282950220E-15
  2.897099613577E-15  1.930379617328E-15  1.280353666526E-15  8.452812568079E-16
  5.554339640764E-16  3.632445247707E-16  2.364157575642E-16  1.531226402194E-16
  9.868762264013E-17  6.328788603955E-17  4.038193634130E-17  2.563516085301E-17
  1.618977081420E-17  1.017124627137E-17  6.356370388778E-18  3.951101543431E-18
  2.442717448401E-18  1.501917463406E-18  9.183496989754E-19  5.583806386647E-19
  3.375853257251E-19  2.029261730696E-19  1.212729262276E-19  7.204943232011E-20
  4.255077205188E-20  2.497832930508E-20  1.457360177549E-20  8.450571873849E-21
  4.869548750848E-21  2.788316520618E-21  1.586401287175E-21  8.967432142658E-22
  5.035853286494E-22  2.809272674662E-22  0.000000000000E+00  0.000000000000E+00
  0.000000000000E+00  0.000000000000E+00  0.000000000000E+00  0.000000000000E+00
  0.000000000000E+00  0.000000000000E+00  0.000000000000E+00  0.000000000000E+00
  0.000000000000E+00  0.000000000000E+00
</data>
</radfunc>
</valence-charge>
<pseudocore-charge matching-radius="0.438833197033"
 number-of-continuous-derivatives="4">
<annotation model-charge-form="Teter function with specified parameters" />
<radfunc>
<data npts="291">
  1.380631811631E+02  1.380446371097E+02  1.379874244967E+02  1.378927471941E+02
  1.377611674330E+02  1.375882497561E+02  1.373680259221E+02  1.371160672652E+02
  1.368330429241E+02  1.365033609646E+02  1.361322294316E+02  1.357294076274E+02
  1.352433706655E+02  1.347366856083E+02  1.342314695112E+02  1.336507076619E+02
  1.329834933987E+02  1.323525765453E+02  1.316450854895E+02  1.308522034886E+02
  1.299642266058E+02  1.291782560834E+02  1.283187271021E+02  1.273793188197E+02
  1.263532853353E+02  1.252334530486E+02  1.240122249528E+02  1.230249607851E+02
  1.219726430256E+02  1.208516352313E+02  1.196581979209E+02  1.183885028755E+02
  1.170386510540E+02  1.156046946072E+02  1.140826635088E+02  1.124685973516E+02
  1.107585828770E+02  1.089487978206E+02  1.076850212668E+02  1.063742185585E+02
  1.050153937822E+02  1.036076081564E+02  1.021499900402E+02  1.006417457139E+02
  9.908217094395E+01  9.747066333884E+01  9.580673549347E+01  9.409002890910E+01
  9.232032866435E+01  9.049757879840E+01  8.862189835172E+01  8.669359799107E+01
  8.471319712518E+01  8.268144139407E+01  8.059932038946E+01  7.846808543564E+01
  7.628926722945E+01  7.406469310526E+01  7.179650365588E+01  6.948716840378E+01
  6.713950017913E+01  6.475666782319E+01  6.234220679736E+01  5.990002724222E+01
  5.743441899675E+01  5.495005305896E+01  5.245197894566E+01  5.119948110692E+01
  4.994561739400E+01  4.869112135003E+01  4.743674784303E+01  4.618327235054E+01
  4.493149014167E+01  4.368221535292E+01  4.243627995422E+01  4.119453260213E+01
  3.995783737720E+01  3.872707240324E+01  3.750312834638E+01  3.628690679251E+01
  3.507931850221E+01  3.388128154285E+01  3.269371929838E+01  3.151755835786E+01
  3.035372628484E+01  2.920314927043E+01  2.806674967389E+01  2.694544345554E+01
  2.584013750795E+01  2.475172689236E+01  2.368109198853E+01  2.262909556742E+01
  2.159657979729E+01  2.058436319520E+01  1.959323753699E+01  1.862396474041E+01
  1.767727373705E+01  1.675385735024E+01  1.585436919723E+01  1.497942063510E+01
  1.412957777125E+01  1.330535855991E+01  1.250723000745E+01  1.173560550992E+01
  1.099084234676E+01  1.027323935539E+01  9.583034811306E+00  8.920404538702E+00
  8.285460276119E+00  7.678248321377E+00  7.098748479133E+00  6.546873333404E+00
  6.022467865921E+00  5.525309439452E+00  5.055108163087E+00  4.611507654007E+00
  4.194086207377E+00  3.802358382806E+00  3.435777012221E+00  3.093735630082E+00
  2.775571322652E+00  2.480567988494E+00  2.207959997613E+00  1.956936231726E+00
  1.726644483019E+00  1.516196183621E+00  1.324671432857E+00  1.151124284284E+00
  9.945882496442E-01  8.540819722547E-01  7.286150181474E-01  6.171937295453E-01
  5.188270821169E-01  4.325324850272E-01  3.573414611651E-01  2.923051442002E-01
  2.364995293661E-01  1.890304161796E-01  1.490379837183E-01  1.157009426463E-01
  8.824021290316E-02  6.592208184183E-02  4.806080457720E-02  3.402061631128E-02
  2.321713533078E-02  1.511814508639E-02  9.243754089131E-03  5.165943096028E-03
  2.507519971965E-03  9.405134532605E-04  1.840475260334E-04  1.747983930067E-06
  1.987416555397E-04  6.183165083630E-04  1.138317075921E-03  1.667354176658E-03
  2.140910494863E-03  2.517424120924E-03  2.774430505925E-03  2.904839447030E-03
  2.913417733494E-03  2.813540076430E-03  2.624261127919E-03  2.367750055386E-03
  2.067116637746E-03  1.744644616915E-03  1.420434547910E-03  1.111445151271E-03
  8.309097018104E-04  5.880927937832E-04  3.883433719280E-04  2.333926133194E-04
  1.218404005516E-04  4.977194513769E-05  1.144667541181E-05  4.730041673222E-09
  8.142087121134E-06  2.871316149127E-05  5.522914633919E-05  8.223088467024E-05
  1.055259878189E-04  1.222905972179E-04  1.310459513459E-04  1.315281712115E-04
  1.244759188298E-04  1.113644625085E-04  9.411602467940E-05  7.481511113408E-05
  5.545404152097E-05  3.772852136327E-05  2.289637190647E-05  1.170513091226E-05
  4.386870625725E-06  7.119482644194E-07  8.812537904374E-08  1.688034591331E-06
  4.586607869230E-06  7.890853667726E-06  1.084708918236E-05  1.291499024771E-05
  1.380303548167E-05  1.346541032980E-05  1.206549822341E-05  9.915087271584E-06
  7.400882033411E-06  4.910570212941E-06  2.769549511833E-06  1.196725177910E-06
  2.840217921500E-07  4.332104146419E-11  0.000000000000E+00  0.000000000000E+00
  0.000000000000E+00  0.000000000000E+00  0.000000000000E+00  0.000000000000E+00
  0.000000000000E+00  0.000000000000E+00  0.000000000000E+00  0.000000000000E+00
  0.000000000000E+00  0.000000000000E+00  0.000000000000E+00  0.000000000000E+00
  0.000000000000E+00  0.000000000000E+00  0.000000000000E+00  0.000000000000E+00
  0.000000000000E+00  0.000000000000E+00  0.000000000000E+00  0.000000000000E+00
  0.000000000000E+00  0.000000000000E+00  0.000000000000E+00  0.000000000000E+00
  0.000000000000E+00  0.000000000000E+00  0.000000000000E+00  0.000000000000E+00
  0.000000000000E+00  0.000000000000E+00  0.000000000000E+00  0.000000000000E+00
  0.000000000000E+00  0.000000000000E+00  0.000000000000E+00  0.000000000000E+00
  0.000000000000E+00  0.000000000000E+00  0.000000000000E+00  0.000000000000E+00
  0.000000000000E+00  0.000000000000E+00  0.000000000000E+00  0.000000000000E+00
  0.000000000000E+00  0.000000000000E+00  0.000000000000E+00  0.000000000000E+00
  0.000000000000E+00  0.000000000000E+00  0.000000000000E+00  0.000000000000E+00
  0.000000000000E+00  0.000000000000E+00  0.000000000000E+00  0.000000000000E+00
  0.000000000000E+00  0.000000000000E+00  0.000000000000E+00  0.000000000000E+00
  0.000000000000E+00  0.000000000000E+00  0.000000000000E+00  0.000000000000E+00
  0.000000000000E+00  0.000000000000E+00  0.000000000000E+00  0.000000000000E+00
  0.000000000000E+00  0.000000000000E+00  0.000000000000E+00  0.000000000000E+00
  0.000000000000E+00  0.000000000000E+00  0.000000000000E+00  0.000000000000E+00
  0.000000000000E+00  0.000000000000E+00  0.000000000000E+00
</data>
</radfunc>
</pseudocore-charge>
<semilocal-potentials set="scalar_relativistic">
<slps n="3" l="s" rc="1.11270348721" eref="-3.14736805904">
<radfunc>
<data npts="291">
  1.048108800129E+01  1.046733284523E+01  1.042494075295E+01  1.035493072279E+01
  1.025792448771E+01  1.013095523345E+01  9.970088128871E+00  9.787181520421E+00
  9.583162343564E+00  9.347408782315E+00  9.084429534595E+00  8.801849111493E+00
  8.464785817022E+00  8.117856974381E+00  7.776376921964E+00  7.389209167091E+00
  6.951351874168E+00  6.543990602531E+00  6.094721747277E+00  5.600454592131E+00
  5.058160057588E+00  4.587797785078E+00  4.083473125865E+00  3.543946500958E+00
  2.968151368007E+00  2.355237222686E+00  1.704615242138E+00  1.191721717218E+00
  6.574643927038E-01  1.019790332961E-01 -4.744635087031E-01 -1.071447027258E+00
 -1.688400555940E+00 -2.324590078974E+00 -2.979111616972E+00 -3.650885933607E+00
 -4.338655088455E+00 -5.040981029331E+00 -5.516494022480E+00 -5.997238554375E+00
 -6.482657485613E+00 -6.972160341394E+00 -7.465124375410E+00 -7.960895827118E+00
 -8.458791362903E+00 -8.958099688863E+00 -9.458083320326E+00 -9.957980490805E+00
 -1.045700718091E+01 -1.095435924600E+01 -1.144921461981E+01 -1.194073557049E+01
 -1.242807098495E+01 -1.291035865736E+01 -1.338672755863E+01 -1.385630006445E+01
 -1.431819412180E+01 -1.477152533581E+01 -1.521540896210E+01 -1.564896179326E+01
 -1.607130393208E+01 -1.648156044886E+01 -1.687886292512E+01 -1.726235089139E+01
 -1.763117317258E+01 -1.798448916035E+01 -1.832147003810E+01 -1.848357932714E+01
 -1.864129999019E+01 -1.879453228359E+01 -1.894317743334E+01 -1.908713767795E+01
 -1.922631631336E+01 -1.936061774056E+01 -1.948994751622E+01 -1.961421240677E+01
 -1.973332044651E+01 -1.984718100014E+01 -1.995570483012E+01 -2.005880416947E+01
 -2.015639280045E+01 -2.024838613944E+01 -2.033470132871E+01 -2.041525733542E+01
 -2.048997505828E+01 -2.055877744228E+01 -2.062158960210E+01 -2.067833895427E+01
 -2.072895535882E+01 -2.077337127053E+01 -2.081152190022E+01 -2.084334538652E+01
 -2.086878297827E+01 -2.088777922804E+01 -2.090028219694E+01 -2.090624367120E+01
 -2.090561939065E+01 -2.089836928958E+01 -2.088445775019E+01 -2.086385386902E+01
 -2.083653173674E+01 -2.080247073148E+01 -2.076165582633E+01 -2.071407791113E+01
 -2.065973412914E+01 -2.059862822879E+01 -2.053077093108E+01 -2.045618031294E+01
 -2.037488220688E+01 -2.028691061754E+01 -2.019230815535E+01 -2.009112648777E+01
 -1.998342680862E+01 -1.986928032594E+01 -1.974876876882E+01 -1.962198491398E+01
 -1.948903313257E+01 -1.935002995836E+01 -1.920510467801E+01 -1.905439994500E+01
 -1.889807241852E+01 -1.873629342943E+01 -1.856924967543E+01 -1.839714394818E+01
 -1.822019589554E+01 -1.803864282270E+01 -1.785274053619E+01 -1.766276423546E+01
 -1.746900945687E+01 -1.727179307515E+01 -1.707145436721E+01 -1.686835614271E+01
 -1.666288594459E+01 -1.645545732111E+01 -1.624651116792E+01 -1.603651713492E+01
 -1.582597508680E+01 -1.561541659896E+01 -1.540540646068E+01 -1.519654414533E+01
 -1.498946519194E+01 -1.478484242431E+01 -1.458338691179E+01 -1.438584855031E+01
 -1.419301611358E+01 -1.400571662446E+01 -1.382481342034E+01 -1.365120288703E+01
 -1.348581770206E+01 -1.332595082574E+01 -1.316768583517E+01 -1.301122543940E+01