<?xml version="1.0" encoding="UTF-8" ?>
<psml version="1.1" energy_unit="hartree" length_unit="bohr"
 uuid="b51bbd00-1d60-11e8-77ba-3a79efcf0e5e"
 xmlns="http://esl.cecam.org/PSML/ns/1.1">
<provenance creator="ONCVPSP-3.3.0+psml-3.3.0-73 (scalar-relativistic)"
 date="2018-03-01">
<annotation action="semilocal-pseudopotential-generation"
 action-cont="projectors-generation" />
<input-file name="oncvpsp-input">
<![CDATA[# atsym z nc nv iexc psfile
W 74 10 4 -116133 upf
# n l f
1 0 2.0
2 0 2.0
2 1 6.0
3 0 2.0
3 1 6.0
3 2 10.0
4 0 2.0
4 1 6.0
4 2 10.0
4 3 14.0
5 0 2.0
5 1 6.0
5 2 4.0
6 0 2.0
# lmax
3
# l rc ep ncon nbas qcut
0 1.6 0.0 4 8 7.4
1 1.6 0.0 4 8 8.0
2 1.6 0.0 4 9 7.4
3 2.0 0.15 4 8 5.5
# lloc lpopt rc5 dvloc0
4 5 1.25 0.0
# l nproj debl
0 2 1.0
1 2 1.0
2 2 1.0
3 2 2.8
# icmod fcfact rcfact
3 5.0 1.36
# epsh1 epsh2 depsh
-12.0 12.0 0.02
# rlmax drl
6.0 0.01
 0
]]>
</input-file>
</provenance>
<pseudo-atom-spec atomic-label="W" atomic-number="74" z-pseudo="14"
 flavor="Hamann&apos;s oncvpsp" relativity="scalar" spin-dft="no"
 core-corrections="yes">
<annotation pseudo-energy="-68.6391147367" />
<exchange-correlation>
<annotation oncvpsp-xc-code="-116133" oncvpsp-xc-type="libxc-interface" />
<libxc-info number-of-functionals="2">
<functional name="Perdew, Burke &amp; Ernzerhof SOL (GGA)" type="exchange"
 id="116" />
<functional name="Perdew, Burke &amp; Ernzerhof SOL (GGA)" type="correlation"
 id="133" />
</libxc-info>
</exchange-correlation>
<valence-configuration total-valence-charge="14">
<shell n="5" l="s" occupation="2" />
<shell n="5" l="p" occupation="6" />
<shell n="5" l="d" occupation="4" />
<shell n="6" l="s" occupation="2" />
</valence-configuration>
</pseudo-atom-spec>
<grid npts="458">
<annotation type="sampled from oncvpsp log grid"
 recipe="r(i:1..N) = r1*exp(a*(i-1)) + r=0; resampled"
 recipe-cont="r1: scale; a: step" scale="0.675675675676E-05"
 step="0.119285708653E-01" delta="0.500000000000E-02" rmax="44.3907762595" />
<grid-data>
  0.000000000000E+00  5.008898274364E-03  1.012493979345E-02  1.518902421755E-02
  2.022377266067E-02  2.536833196880E-02  3.070295048932E-02  3.585310515037E-02
  4.088014357042E-02  4.605932164004E-02  5.127930729975E-02  5.641391631537E-02
  6.206265493084E-02  6.746739433111E-02  7.247312905385E-02  7.785026362628E-02
  8.362635401292E-02  8.876581095806E-02  9.422112548187E-02  1.000117093648E-01
  1.061581673846E-01  1.113462160423E-01  1.167878094769E-01  1.224953386582E-01
  1.284818001142E-01  1.347608255254E-01  1.413467127651E-01  1.464965004517E-01
  1.518339141021E-01  1.573657896297E-01  1.630992120055E-01  1.690415243328E-01
  1.752003372510E-01  1.815835386839E-01  1.881993039416E-01  1.950561061912E-01
  2.021627273089E-01  2.095282691274E-01  2.145871196573E-01  2.197681110743E-01
  2.250741923480E-01  2.305083836481E-01  2.360737780629E-01  2.417735433604E-01
  2.476109237913E-01  2.535892419353E-01  2.597119005926E-01  2.659823847205E-01
  2.724042634172E-01  2.789811919532E-01  2.857169138517E-01  2.926152630197E-01
  2.996801659301E-01  3.069156438563E-01  3.143258151616E-01  3.219148976428E-01
  3.296872109315E-01  3.376471789522E-01  3.457993324409E-01  3.541483115233E-01
  3.626988683567E-01  3.714558698343E-01  3.804243003556E-01  3.896092646634E-01
  3.990159907494E-01  4.086498328301E-01  4.185162743939E-01  4.235384696867E-01
  4.286209313229E-01  4.337643824988E-01  4.389695550888E-01  4.442371897498E-01
  4.495680360268E-01  4.549628524592E-01  4.604224066887E-01  4.659474755689E-01
  4.715388452758E-01  4.771973114191E-01  4.829236791561E-01  4.887187633060E-01
  4.945833884656E-01  5.005183891272E-01  5.065246097968E-01  5.126029051143E-01
  5.187541399757E-01  5.249791896554E-01  5.312789399313E-01  5.376542872104E-01
  5.441061386570E-01  5.506354123208E-01  5.572430372687E-01  5.639299537159E-01
  5.706971131605E-01  5.775454785184E-01  5.844760242607E-01  5.914897365518E-01
  5.985876133904E-01  6.057706647511E-01  6.130399127281E-01  6.203963916808E-01
  6.278411483810E-01  6.353752421616E-01  6.429997450675E-01  6.507157420083E-01
  6.585243309124E-01  6.664266228834E-01  6.744237423580E-01  6.825168272663E-01
  6.907070291935E-01  6.989955135438E-01  7.073834597063E-01  7.158720612228E-01
  7.244625259575E-01  7.331560762690E-01  7.419539491842E-01  7.508573965744E-01
  7.598676853333E-01  7.689860975573E-01  7.782139307280E-01  7.875524978967E-01
  7.970031278715E-01  8.065671654059E-01  8.162459713908E-01  8.260409230475E-01
  8.359534141241E-01  8.459848550936E-01  8.561366733547E-01  8.664103134349E-01
  8.768072371962E-01  8.873289240425E-01  8.979768711310E-01  9.087525935846E-01
  9.196576247076E-01  9.306935162041E-01  9.418618383985E-01  9.531641804593E-01
  9.646021506248E-01  9.761773764323E-01  9.878915049495E-01  9.997462030089E-01
  1.011743157445E+00  1.023884075334E+00  1.036170684238E+00  1.048604732449E+00
  1.061187989239E+00  1.073922245109E+00  1.086809312051E+00  1.099851023795E+00
  1.113049236081E+00  1.126405826914E+00  1.139922696837E+00  1.153601769199E+00
  1.167444990429E+00  1.181454330314E+00  1.195631782278E+00  1.209979363666E+00
  1.224499116030E+00  1.239193105422E+00  1.254063422687E+00  1.269112183759E+00
  1.284341529964E+00  1.299753628324E+00  1.315350671864E+00  1.331134879926E+00
  1.347108498485E+00  1.363273800467E+00  1.379633086073E+00  1.396188683106E+00
  1.412942947303E+00  1.429898262670E+00  1.447057041823E+00  1.464421726324E+00
  1.481994787040E+00  1.499778724485E+00  1.517776069179E+00  1.535989382009E+00
  1.554421254593E+00  1.573074309648E+00  1.591951201364E+00  1.611054615780E+00
  1.630387271169E+00  1.649951918424E+00  1.669751341445E+00  1.689788357542E+00
  1.710065817832E+00  1.730586607646E+00  1.751353646938E+00  1.772369890701E+00
  1.793638329390E+00  1.815161989343E+00  1.836943933215E+00  1.858987260413E+00
  1.881295107538E+00  1.903870648829E+00  1.926717096615E+00  1.949837701774E+00
  1.973235754195E+00  1.996914583246E+00  2.020877558245E+00  2.045128088943E+00
  2.069669626011E+00  2.094505661523E+00  2.119639729461E+00  2.145075406215E+00
  2.170816311089E+00  2.196866106822E+00  2.223228500104E+00  2.249907242105E+00
  2.276906129011E+00  2.304229002559E+00  2.331879750590E+00  2.359862307597E+00
  2.388180655288E+00  2.416838823151E+00  2.445840889029E+00  2.475190979697E+00
  2.504893271454E+00  2.534951990711E+00  2.565371414600E+00  2.596155871575E+00
  2.627309742034E+00  2.658837458938E+00  2.690743508446E+00  2.723032430547E+00
  2.755708819713E+00  2.788777325550E+00  2.822242653457E+00  2.856109565298E+00
  2.890382880082E+00  2.925067474643E+00  2.960168284338E+00  2.995690303750E+00
  3.031638587395E+00  3.068018250444E+00  3.104834469450E+00  3.142092483083E+00
  3.179797592880E+00  3.217955163994E+00  3.256570625962E+00  3.295649473474E+00
  3.335197267156E+00  3.375219634362E+00  3.415722269974E+00  3.456710937214E+00
  3.498191468460E+00  3.540169766082E+00  3.582651803275E+00  3.625643624914E+00
  3.669151348413E+00  3.713181164594E+00  3.757739338569E+00  3.802832210632E+00
  3.848466197159E+00  3.894647791525E+00  3.941383565024E+00  3.988680167804E+00
  4.036544329817E+00  4.084982861775E+00  4.134002656117E+00  4.183610687990E+00
  4.233814016246E+00  4.284619784441E+00  4.336035221854E+00  4.388067644516E+00
  4.440724456251E+00  4.494013149726E+00  4.547941307522E+00  4.602516603213E+00
  4.657746802451E+00  4.713639764081E+00  4.770203441249E+00  4.827445882544E+00
  4.885375233135E+00  4.943999735933E+00  5.003327732764E+00  5.063367665557E+00
  5.124128077544E+00  5.185617614474E+00  5.247845025848E+00  5.310819166158E+00
  5.374548996152E+00  5.439043584106E+00  5.504312107115E+00  5.570363852400E+00
  5.637208218629E+00  5.704854717253E+00  5.773312973860E+00  5.842592729546E+00
  5.912703842301E+00  5.983656288408E+00  6.055460163869E+00  6.128125685836E+00
  6.201663194066E+00  6.276083152394E+00  6.351396150223E+00  6.427612904026E+00
  6.504744258874E+00  6.582801189981E+00  6.661794804260E+00  6.741736341912E+00
  6.822637178014E+00  6.904508824151E+00  6.987362930040E+00  7.071211285201E+00
  7.156065820623E+00  7.241938610471E+00  7.328841873796E+00  7.416787976282E+00
  7.505789431997E+00  7.595858905181E+00  7.687009212044E+00  7.779253322588E+00
  7.872604362459E+00  7.967075614809E+00  8.062680522186E+00  8.159432688453E+00
  8.257345880714E+00  8.356434031283E+00  8.456711239658E+00  8.558191774534E+00
  8.660890075828E+00  8.764820756738E+00  8.869998605819E+00  8.976438589089E+00
  9.084155852158E+00  9.193165722384E+00  9.303483711053E+00  9.415125515585E+00
  9.528107021772E+00  9.642444306033E+00  9.758153637706E+00  9.875251481358E+00
  9.993754499135E+00  1.011367955312E+01  1.023504370776E+01  1.035786423225E+01
  1.048215860304E+01  1.060794450628E+01  1.073523984035E+01  1.086406271844E+01
  1.099443147106E+01  1.112636464871E+01  1.125988102450E+01  1.139499959679E+01
  1.153173959195E+01  1.167012046706E+01  1.181016191266E+01  1.195188385561E+01
  1.209530646188E+01  1.224045013942E+01  1.238733554109E+01  1.253598356759E+01
  1.268641537040E+01  1.283865235484E+01  1.299271618310E+01  1.314862877730E+01
  1.330641232263E+01  1.346608927050E+01  1.362768234174E+01  1.379121452985E+01
  1.395670910420E+01  1.412418961345E+01  1.429367988882E+01  1.446520404748E+01
  1.463878649605E+01  1.481445193400E+01  1.499222535721E+01  1.517213206150E+01
  1.535419764624E+01  1.553844801799E+01  1.572490939421E+01  1.591360830694E+01
  1.610457160662E+01  1.629782646590E+01  1.649340038349E+01  1.669132118809E+01
  1.689161704235E+01  1.709431644686E+01  1.729944824422E+01  1.750704162315E+01
  1.771712612263E+01  1.792973163610E+01  1.814488841573E+01  1.836262707672E+01
  1.858297860164E+01  1.880597434486E+01  1.903164603700E+01  1.926002578944E+01
  1.949114609892E+01  1.972503985211E+01  1.996174033033E+01  2.020128121429E+01
  2.044369658887E+01  2.068902094793E+01  2.093728919931E+01  2.118853666970E+01
  2.144279910974E+01  2.170011269905E+01  2.196051405144E+01  2.222404022006E+01
  2.249072870270E+01  2.276061744713E+01  2.303374485650E+01  2.331014979478E+01
  2.358987159231E+01  2.387295005142E+01  2.415942545204E+01  2.444933855746E+01
  2.474273062015E+01  2.503964338759E+01  2.534011910824E+01  2.564420053754E+01
  2.595193094399E+01  2.626335411532E+01  2.657851436471E+01  2.689745653708E+01
  2.722022601553E+01  2.754686872771E+01  2.787743115245E+01  2.821196032628E+01
  2.855050385019E+01  2.889310989639E+01  2.923982721515E+01  2.959070514173E+01
  2.994579360343E+01  3.030514312667E+01  3.066880484419E+01  3.103683050232E+01
  3.140927246835E+01  3.178618373797E+01  3.216761794283E+01  3.255362935814E+01
  3.294427291044E+01  3.333960418536E+01  3.373967943559E+01  3.414455558882E+01
  3.455429025588E+01  3.496894173895E+01  3.538856903982E+01  3.581323186830E+01
  3.624299065072E+01  3.667790653853E+01  3.711804141699E+01  3.756345791399E+01
  3.801421940896E+01  3.847039004187E+01  3.893203472237E+01  3.939921913904E+01
  3.987200976871E+01  4.035047388593E+01  4.083467957256E+01  4.132469572743E+01
  4.182059207616E+01  4.232243918108E+01  4.283030845125E+01  4.334427215266E+01
  4.386440341850E+01  4.439077625952E+01
</grid-data>
</grid>
<valence-charge total-charge="14" is-unscreening-charge="yes"
 rescaled-to-z-pseudo="no">
<radfunc>
<data npts="458">
  1.377061715217E+00  1.377667736400E+00  1.379537976879E+00  1.382634680872E+00
  1.386942057337E+00  1.392609161157E+00  1.399837348742E+00  1.408121870591E+00
  1.417446646142E+00  1.428333798056E+00  1.440622240729E+00  1.453999065427E+00
  1.470193685158E+00  1.487139934449E+00  1.504102065129E+00  1.523681208463E+00
  1.546282011065E+00  1.567759322291E+00  1.591966758389E+00  1.619252133284E+00
  1.650007622025E+00  1.677405778995E+00  1.707558679535E+00  1.740743587056E+00
  1.777265518499E+00  1.817459922501E+00  1.861695573431E+00  1.897766677328E+00
  1.936523563813E+00  1.978165102941E+00  2.022904431189E+00  2.070969838723E+00
  2.122605675169E+00  2.178073263641E+00  2.237651809360E+00  2.301639285059E+00
  2.370353270227E+00  2.444131715056E+00  2.496307322847E+00  2.551004562508E+00
  2.608339392025E+00  2.668432087322E+00  2.731407235850E+00  2.797393698079E+00
  2.866524531125E+00  2.938936867962E+00  3.014771744896E+00  3.094173869003E+00
  3.177291316296E+00  3.264275150281E+00  3.355278949454E+00  3.450458231039E+00
  3.549969757022E+00  3.653970707169E+00  3.762617702386E+00  3.876065660379E+00
  3.994466464212E+00  4.117967423096E+00  4.246709503515E+00  4.380825307818E+00
  4.520436776618E+00  4.665652590938E+00  4.816565250057E+00  4.973247801622E+00
  5.135750201942E+00  5.304095286599E+00  5.478274334853E+00  5.567539055642E+00
  5.658242215955E+00  5.750371619532E+00  5.843912111668E+00  5.938845391376E+00
  6.035149817271E+00  6.132800207415E+00  6.231767633374E+00  6.332019208846E+00
  6.433517873249E+00  6.536222170758E+00  6.640086025363E+00  6.745058512587E+00
  6.851083628620E+00  6.958100057699E+00  7.066040938717E+00  7.174833632088E+00
  7.284399488092E+00  7.394653617979E+00  7.505504669301E+00  7.616854607033E+00
  7.728598502214E+00  7.840624329973E+00  7.952812778950E+00  8.065037074289E+00
  8.177162816515E+00  8.289047838775E+00  8.400542085051E+00  8.511487512138E+00
  8.621718018283E+00  8.731059401535E+00  8.839329350986E+00  8.946337474179E+00
  9.051885364063E+00  9.155766708952E+00  9.257767449008E+00  9.357665982765E+00
  9.455233427260E+00  9.550233935245E+00  9.642425072923E+00  9.731558261506E+00
  9.817379285747E+00  9.899628872353E+00  9.978043340941E+00  1.005235532984E+01
  1.012229459867E+01  1.018758890906E+01  1.024796498454E+01  1.030314954973E+01
  1.035287044848E+01  1.039685783977E+01  1.043484546929E+01  1.046657201374E+01
  1.049178249381E+01  1.051022975087E+01  1.052167598114E+01  1.052589431989E+01
  1.052267046720E+01  1.051180434530E+01  1.049311177641E+01  1.046642616868E+01
  1.043160019661E+01  1.038850746111E+01  1.033704411340E+01  1.027713042570E+01
  1.020871229111E+01  1.013176263420E+01  1.004628271339E+01  9.952303295932E+00
  9.849885686496E+00  9.739122590285E+00  9.620138792653E+00  9.493091637825E+00
  9.358171290754E+00  9.215600767754E+00  9.065635723521E+00  8.908563984481E+00
  8.744704821019E+00  8.574407954049E+00  8.398052294513E+00  8.216044417685E+00
  8.028816777603E+00  7.836825670372E+00  7.640548958510E+00  7.440483571802E+00
  7.237142803210E+00  7.031053421196E+00  6.822752622283E+00  6.612784849731E+00
  6.401698505830E+00  6.190042586449E+00  5.978363267178E+00  5.767200470686E+00
  5.557084444850E+00  5.348532381094E+00  5.142045101927E+00  4.938103845748E+00
  4.737167176158E+00  4.539668042591E+00  4.346011018729E+00  4.156569745194E+00
  3.971684603308E+00  3.791660647300E+00  3.616765823096E+00  3.447229502631E+00
  3.283241363184E+00  3.124950641394E+00  2.972465790933E+00  2.825854571143E+00
  2.685144590835E+00  2.550324326841E+00  2.421344630425E+00  2.298120726501E+00
  2.180535974712E+00  2.068451086271E+00  1.961716300254E+00  1.860173285045E+00
  1.763656523874E+00  1.671994882013E+00  1.585012980579E+00  1.502532485174E+00
  1.424373297120E+00  1.350354648035E+00  1.280296098924E+00  1.214018445450E+00
  1.151344531673E+00  1.092099975027E+00  1.036113805768E+00  9.832190244817E-01
  9.332530815537E-01  8.860582827374E-01  8.414821251352E-01  7.993775680292E-01
  7.596032430665E-01  7.220236083227E-01  6.865090507442E-01  6.529359414114E-01
  6.211866479704E-01  5.911495084625E-01  5.627187706392E-01  5.357945006912E-01
  5.102824651468E-01  4.860939895145E-01  4.631457970630E-01  4.413598308591E-01
  4.206630622060E-01  4.009872880986E-01  3.822689203759E-01  3.644487689369E-01
  3.474718212024E-01  3.312870198116E-01  3.158470403446E-01  3.011080706741E-01
  2.870295933638E-01  2.735741723546E-01  2.607072450086E-01  2.483969204205E-01
  2.366137847548E-01  2.253307142232E-01  2.145226961890E-01  2.041666587613E-01
  1.942413091332E-01  1.847269808199E-01  1.756054898618E-01  1.668599999795E-01
  1.584748965988E-01  1.504356696011E-01  1.427288046046E-01  1.353416825364E-01
  1.282624872183E-01  1.214801206586E-01  1.149841257195E-01  1.087646158072E-01
  1.028122112228E-01  9.711798179863E-02  9.167339544149E-02  8.647027220311E-02
  8.150074349828E-02  7.675721609752E-02  7.223234052747E-02  6.791898352279E-02
  6.381020418469E-02  5.989923351580E-02  5.617945701618E-02  5.264440004283E-02
  4.928771565346E-02  4.610317467435E-02  4.308465775256E-02  4.022614916571E-02
  3.752173222857E-02  3.496558603962E-02  3.255198348323E-02  3.027529030630E-02
  2.812996514776E-02  2.611056040459E-02  2.421172382812E-02  2.242820075168E-02
  2.075483685508E-02  1.918658137388E-02  1.771849066178E-02  1.634573201399E-02
  1.506358765789E-02  1.386745881670E-02  1.275286975163E-02  1.171547168940E-02
  1.075104654541E-02  9.855510358120E-03  9.024916357434E-03  8.255457599636E-03
  7.543469111819E-03  6.885429501203E-03  6.277961997331E-03  5.717834908148E-03
  5.201961483644E-03  4.727399192725E-03  4.291348429928E-03  3.891150678212E-03
  3.524286162222E-03  3.188371033009E-03  2.881154130154E-03  2.600513370734E-03
  2.344451816512E-03  2.111093471483E-03  1.898678861356E-03  1.705560445114E-03
  1.530197906473E-03  1.371153370101E-03  1.227086583960E-03  1.096750105372E-03
  9.789845243463E-04  8.727137533943E-04  7.769404100609E-04  6.907413105258E-04
  6.132630973170E-04  5.437180105511E-04  4.813798080669E-04  4.255798563861E-04
  3.757033891168E-04  3.311859290261E-04  2.915098832135E-04  2.562013090014E-04
  2.248268460916E-04  1.969908121873E-04  1.723324579735E-04  1.505233765940E-04
  1.312650624246E-04  1.142866137039E-04  9.934257346482E-05  8.621090318389E-05
  7.469108360317E-05  6.460233726122E-05  5.578196737774E-05  4.808380785839E-05
  4.137677931239E-05  3.554354609984E-05  3.047926954419E-05  2.609045255748E-05
  2.229387103109E-05  1.901558744492E-05  1.619004224440E-05  1.375921862995E-05
  1.167187650020E-05  9.882851389519E-06  8.352414344945E-06  7.045688797792E-06
  5.932120603019E-06  4.984997544000E-06  4.181014732795E-06  3.499882475279E-06
  2.923973316182E-06  2.438005130207E-06  2.028757280835E-06  1.684817026968E-06
  1.396353517906E-06  1.154916878065E-06  9.532600429323E-07  7.851811660126E-07
  6.453845716436E-07  5.293583797241E-07  4.332670746531E-07  3.538574314202E-07
  2.883763462273E-07  2.344992467824E-07  1.902678781695E-07  1.540363737260E-07
  1.244246265606E-07  1.002780761960E-07  8.063311640064E-08  6.468741472779E-08
  5.177451182058E-08  4.134213942479E-08  3.293376057972E-08  2.617289396094E-08
  2.074983717714E-08  1.641045134300E-08  1.294671182886E-08  1.018876809846E-08
  7.998289351345E-09  6.262902644029E-09  4.891556614979E-09  3.810667212186E-09
  2.960922226993E-09  2.294639266521E-09  1.773587320601E-09  1.367195549716E-09
  1.051084569807E-09  8.058655502124E-10  6.161610655874E-10  4.698090262732E-10
  3.572173116829E-10  2.708420889407E-10  2.047673400627E-10  1.543669570595E-10
  1.160339941230E-10  8.696437631372E-11  6.498463085375E-11  4.841509652957E-11
  3.596163632625E-11  2.663017799758E-11  1.965947964889E-11  1.446839930090E-11
  1.061467018030E-11  7.762773832674E-12  5.658983682743E-12  4.112041457176E-12
  2.978243973495E-12  2.149971613151E-12  1.546893535954E-12  1.109247658902E-12
  7.927233118329E-13  5.645776382099E-13  4.006984424902E-13  2.833905245267E-13
  1.997133117731E-13  1.402360441680E-13  3.711439597222E-14  2.530259946798E-14
  1.717571426081E-14  1.160830981294E-14  7.810970774998E-15  5.232387685740E-15
  3.489236890551E-15  2.316184274575E-15  1.530396841253E-15  1.006466227039E-15
  6.587705052185E-16  4.291253638499E-16  2.781789884432E-16  1.794441323365E-16
  1.151790231597E-16  7.355814882849E-17  4.673854933804E-17  2.954473857492E-17
  1.857884390589E-17  1.162153870610E-17  7.230818566777E-18  4.474683466246E-18
  2.753975035723E-18  1.685590073608E-18  1.025910165132E-18  6.208731370145E-19
  3.735966637564E-19  2.235011424629E-19  1.329238276459E-19  7.858534986762E-20
  4.618117324115E-20  2.697376279159E-20  1.565811610938E-20  9.032889660744E-21
  5.178101393233E-21  2.949429888334E-21  1.669152116740E-21  9.384481806663E-22
  5.241396608524E-22  2.907846517569E-22  1.602317612007E-22  8.768854681611E-23
  4.765607186141E-23  2.571804610089E-23  1.378052078809E-23  0.000000000000E+00
  0.000000000000E+00  0.000000000000E+00  0.000000000000E+00  0.000000000000E+00
  0.000000000000E+00  0.000000000000E+00  0.000000000000E+00  0.000000000000E+00
  0.000000000000E+00  0.000000000000E+00
</data>
</radfunc>
</valence-charge>
<pseudocore-charge matching-radius="0.941861838399"
 number-of-continuous-derivatives="4">
<annotation model-charge-form="Teter function with specified parameters" />
<radfunc>
<data npts="291">
  5.237924378191E+01  5.237671334106E+01  5.236890507203E+01  5.235597942750E+01
  5.233800690212E+01  5.231437235645E+01  5.228424615903E+01  5.224974315250E+01
  5.221094066356E+01  5.216568070108E+01  5.211465187660E+01  5.205917127130E+01
  5.199209781947E+01  5.192202080547E+01  5.185198938573E+01  5.177129042379E+01
  5.167831847506E+01  5.159014654000E+01  5.149097271613E+01  5.137944826337E+01
  5.125406556560E+01  5.114265655823E+01  5.102035409542E+01  5.088612182996E+01
  5.073883086842E+01  5.057725279260E+01  5.040005244002E+01  5.025603271258E+01
  5.010175673985E+01  4.993652828622E+01  4.975960910361E+01  4.957021722424E+01
  4.936752532654E+01  4.915065920607E+01  4.891869638939E+01  4.867066493477E+01
  4.840554247102E+01  4.812225553312E+01  4.792275282834E+01  4.771433217583E+01
  4.749663754990E+01  4.726930299262E+01  4.703195279854E+01  4.678420176435E+01
  4.652565551038E+01  4.625591088189E+01  4.597455643807E+01  4.568117303777E+01
  4.537533453105E+01  4.505660856662E+01  4.472455752540E+01  4.437873959120E+01
  4.401870997004E+01  4.364402226987E+01  4.325423005308E+01  4.284888857438E+01
  4.242755671695E+01  4.198979913984E+01  4.153518864956E+01  4.106330880876E+01
  4.057375679422E+01  4.006614651611E+01  3.954011200933E+01  3.899531110649E+01
  3.843142940080E+01  3.784818450467E+01  3.724533060784E+01  3.693648465945E+01
  3.662266333531E+01  3.630384840857E+01  3.598002490235E+01  3.565118126656E+01
  3.531730955885E+01  3.497840562964E+01  3.463446931110E+01  3.428550460980E+01
  3.393151990272E+01  3.357252813661E+01  3.320854703012E+01  3.283959927849E+01
  3.246571276054E+01  3.208692074730E+01  3.170326211211E+01  3.131478154144E+01
  3.092152974616E+01  3.052356367244E+01  3.012094671183E+01  2.971374890972E+01
  2.930204717161E+01  2.888592546618E+01  2.846547502460E+01  2.804079453499E+01
  2.761199033114E+01  2.717917657458E+01  2.674247542884E+01  2.630201722482E+01
  2.585794061614E+01  2.541039272320E+01  2.495952926469E+01  2.450551467521E+01
  2.404852220765E+01  2.358873401881E+01  2.312634123686E+01  2.266154400910E+01
  2.219455152836E+01  2.172558203662E+01  2.125486280403E+01  2.078263008179E+01
  2.030912902718E+01  1.983461359913E+01  1.935934642253E+01  1.888359861978E+01
  1.840764960780E+01  1.793178685900E+01  1.745630562468E+01  1.698150861921E+01
  1.650770566388E+01  1.603521328874E+01  1.556435429168E+01  1.509545725323E+01
  1.462885600661E+01  1.416488906197E+01  1.370389898448E+01  1.324623172591E+01
  1.279223590961E+01  1.234226206913E+01  1.189666184093E+01  1.145578711199E+01
  1.101998912353E+01  1.058961753217E+01  1.016501943066E+01  9.746538330276E+00
  9.334513107626E+00  8.929276919177E+00  8.531156086933E+00  8.140468959498E+00
  7.757524753042E+00  7.382622377279E+00  7.016049252012E+00  6.658080120307E+00
  6.308975864848E+00  5.968982334491E+00  5.638329188473E+00  5.317228766182E+00
  5.005874990757E+00  4.704442315155E+00  4.413084719593E+00  4.131934769543E+00
  3.861102743598E+00  3.600675840619E+00  3.350717475611E+00  3.111266673624E+00
  2.882337570843E+00  2.663919031678E+00  2.455974390255E+00  2.258441324142E+00
  2.071231867483E+00  1.894232569845E+00  1.727304806157E+00  1.570285242006E+00
  1.422986457301E+00  1.285197729954E+00  1.156685979723E+00  1.037196870732E+00
  9.264560694603E-01  8.241706531785E-01  7.300306619170E-01  6.437107851158E-01
  5.648721721495E-01  4.931643539671E-01  4.282272611726E-01  3.696933220384E-01
  3.171896222093E-01  2.703401062848E-01  2.287678000765E-01  1.920970311839E-01
  1.599556246489E-01  1.319770498728E-01  1.078024947530E-01  8.708284314353E-02
  6.948053229528E-02  5.467126791007E-02  4.234557585257E-02  3.221017141903E-02
  2.398912934660E-02  1.742484044906E-02  1.227874385248E-02  8.331827235613E-03
  5.384891201430E-03  3.258577849696E-03  1.793167708409E-03  8.481533249533E-04
  3.016019177337E-04  4.932344145390E-05  3.864115114067E-06  9.334879165120E-05
  2.601984048924E-04  4.597510127555E-04  6.588165757857E-04  8.341964924817E-04
  9.711990018755E-04  1.062180826817E-03  1.105143861940E-03  1.102413330701E-03
  1.059420698933E-03  9.836108216370E-04  8.834884287645E-04  7.678142655389E-04
  6.449561581391E-04  5.223951589557E-04  4.063819310684E-04  3.017338558435E-04
  2.117591811489E-04  1.382910452068E-04  8.181156134373E-05  4.164444560936E-05
  1.619398303849E-05  3.208480314542E-06  4.771042546426E-08  3.936131765948E-06
  1.218672104379E-05  2.238391094684E-05  3.251814744143E-05  4.106873092679E-05
  4.703562404422E-05  4.992454809314E-05  4.969272622228E-05  4.666488331215E-05
  4.143045494230E-05  3.473333416312E-05  2.736491237411E-05  2.006974167771E-05
  1.347102180821E-05  8.020512956020E-06  3.974652865068E-06  1.395884645966E-06
  1.757434366304E-07  7.433273079934E-08  7.696136930590E-07  1.909525082131E-06
  3.160351926104E-06  4.245883185602E-06  4.973577258099E-06  5.245962391406E-06
  5.057574859306E-06  4.479616210709E-06  3.635958115360E-06  2.674967378979E-06
  1.741778414436E-06  9.551179903519E-07  3.916967987095E-07  7.971529643002E-08
  0.000000000000E+00  0.000000000000E+00  0.000000000000E+00  0.000000000000E+00
  0.000000000000E+00  0.000000000000E+00  0.000000000000E+00  0.000000000000E+00
  0.000000000000E+00  0.000000000000E+00  0.000000000000E+00  0.000000000000E+00
  0.000000000000E+00  0.000000000000E+00  0.000000000000E+00  0.000000000000E+00
  0.000000000000E+00  0.000000000000E+00  0.000000000000E+00  0.000000000000E+00
  0.000000000000E+00  0.000000000000E+00  0.000000000000E+00  0.000000000000E+00
  0.000000000000E+00  0.000000000000E+00  0.000000000000E+00  0.000000000000E+00
  0.000000000000E+00  0.000000000000E+00  0.000000000000E+00  0.000000000000E+00
  0.000000000000E+00  0.000000000000E+00  0.000000000000E+00  0.000000000000E+00
  0.000000000000E+00  0.000000000000E+00  0.000000000000E+00
</data>
</radfunc>
</pseudocore-charge>
<semilocal-potentials set="scalar_relativistic">
<slps n="5" l="s" rc="1.61105461578" eref="-2.90716392014">
<radfunc>
<data npts="291">
 -2.903420771461E+00 -2.905382820443E+00 -2.911434943308E+00 -2.921446134470E+00
 -2.935351006521E+00 -2.953609503171E+00 -2.976838773450E+00 -3.003382107341E+00
 -3.033155841292E+00 -3.067781624369E+00 -3.106688584509E+00 -3.148831569806E+00
 -3.199561618440E+00 -3.252309130508E+00 -3.304764555286E+00 -3.364893039583E+00
 -3.433748377977E+00 -3.498639182603E+00 -3.571154767282E+00 -3.652109783930E+00
 -3.742385096035E+00 -3.821950147172E+00 -3.908599664224E+00 -4.002873458024E+00
 -4.105334586681E+00 -4.216566622434E+00 -4.337169971450E+00 -4.434140556857E+00
 -4.536987849365E+00 -4.645973058280E+00 -4.761355688896E+00 -4.883391308223E+00
 -5.012329022528E+00 -5.148408656735E+00 -5.291857629880E+00 -5.442887525760E+00
 -5.601690363991E+00 -5.768434583582E+00 -5.884079976433E+00 -6.003351862933E+00
 -6.126277077980E+00 -6.252874810293E+00 -6.383155956731E+00 -6.517122468113E+00
 -6.654766690402E+00 -6.796070705451E+00 -6.941005675827E+00 -7.089531198563E+00
 -7.241594672903E+00 -7.397130687331E+00 -7.556060431306E+00 -7.718291137182E+00
 -7.883715557793E+00 -8.052211485085E+00 -8.223641314987E+00 -8.397851663432E+00
 -8.574673038080E+00 -8.753919569818E+00 -8.935388807572E+00 -9.118861579341E+00
 -9.304101921664E+00 -9.490857079010E+00 -9.678857573776E+00 -9.867817346813E+00
 -1.005743396764E+01 -1.024738891270E+01 -1.043734790950E+01 -1.053222025973E+01
 -1.062696134365E+01 -1.072152513888E+01 -1.081586472561E+01 -1.090993230418E+01
 -1.100367921350E+01 -1.109705595015E+01 -1.119001218826E+01 -1.128249680012E+01
 -1.137445787737E+01 -1.146584275299E+01 -1.155659802380E+01 -1.164666957364E+01
 -1.173600259718E+01 -1.182454162428E+01 -1.191223054497E+01 -1.199901263504E+01
 -1.208483058220E+01 -1.216962651289E+01 -1.225334201968E+01 -1.233591818935E+01
 -1.241729563163E+01 -1.249741450868E+01 -1.257621456528E+01 -1.265363515989E+01
 -1.272961529647E+01 -1.280409365732E+01 -1.287700863678E+01 -1.294829837608E+01
 -1.301790079923E+01 -1.308575365012E+01 -1.315179453094E+01 -1.321596094184E+01
 -1.327819032216E+01 -1.333842009306E+01 -1.339658770178E+01 -1.345263066758E+01
 -1.350648662934E+01 -1.355809339504E+01 -1.360738899299E+01 -1.365431172495E+01
 -1.369880022114E+01 -1.374079349714E+01 -1.378023101257E+01 -1.381705273166E+01
 -1.385119918547E+01 -1.388261153572E+01 -1.391123164006E+01 -1.393700211861E+01
 -1.395986642143E+01 -1.397976889679E+01 -1.399665485973E+01 -1.401047066070E+01
 -1.402116375361E+01 -1.402868276304E+01 -1.403297754987E+01 -1.403399927487E+01
 -1.403170045956E+01 -1.402603504367E+01 -1.401695843865E+01 -1.400442757646E+01
 -1.398840095310E+01 -1.396883866624E+01 -1.394570244668E+01 -1.391895568308E+01
 -1.388856344006E+01 -1.385449246972E+01 -1.381671121709E+01 -1.377518982029E+01
 -1.372990010692E+01 -1.368081558854E+01 -1.362791145579E+01 -1.357116457784E+01
 -1.351055351028E+01 -1.344605851710E+01 -1.337766161324E+01 -1.330534663571E+01
 -1.322909935285E+01 -1.314890762254E+01 -1.306476161239E+01 -1.297665409647E+01