<?xml version="1.0" encoding="UTF-8" ?>
<psml version="1.1" energy_unit="hartree" length_unit="bohr"
 uuid="92e84c80-1d65-11e8-477e-4714b9731fa5"
 xmlns="http://esl.cecam.org/PSML/ns/1.1">
<provenance creator="ONCVPSP-3.3.0+psml-3.3.0-73 (scalar-relativistic)"
 date="2018-03-01">
<annotation action="semilocal-pseudopotential-generation"
 action-cont="projectors-generation" />
<input-file name="oncvpsp-input">
<![CDATA[# atsym z nc nv iexc psfile
Br 35 5 3 -116133 upf
# n l f
1 0 2.0
2 0 2.0
2 1 6.0
3 0 2.0
3 1 6.0
3 2 10.0
4 0 2.0
4 1 5.0
# lmax
2
# l rc ep ncon nbas qcut
0 1.8 0.0 4 8 5.8
1 1.5 0.0 4 8 6.6
2 1.9 0.0 4 8 8.6
# lloc lpopt rc5 dvloc0
4 5 1.5 0.0
# l nproj debl
0 2 3.2
1 2 4.0
2 2 2.5
# icmod fcfact rcfact
3 3.5 1.5
# epsh1 epsh2 depsh
-12.0 12.0 0.02
# rlmax drl
6.0 0.01
 0
]]>
</input-file>
</provenance>
<pseudo-atom-spec atomic-label="Br" atomic-number="35" z-pseudo="17"
 flavor="Hamann&apos;s oncvpsp" relativity="scalar" spin-dft="no"
 core-corrections="yes">
<annotation pseudo-energy="-128.041212597" />
<exchange-correlation>
<annotation oncvpsp-xc-code="-116133" oncvpsp-xc-type="libxc-interface" />
<libxc-info number-of-functionals="2">
<functional name="Perdew, Burke &amp; Ernzerhof SOL (GGA)" type="exchange"
 id="116" />
<functional name="Perdew, Burke &amp; Ernzerhof SOL (GGA)" type="correlation"
 id="133" />
</libxc-info>
</exchange-correlation>
<valence-configuration total-valence-charge="17">
<shell n="3" l="d" occupation="10" />
<shell n="4" l="s" occupation="2" />
<shell n="4" l="p" occupation="5" />
</valence-configuration>
</pseudo-atom-spec>
<grid npts="457">
<annotation type="sampled from oncvpsp log grid"
 recipe="r(i:1..N) = r1*exp(a*(i-1)) + r=0; resampled"
 recipe-cont="r1: scale; a: step" scale="0.142857142857E-04"
 step="0.119285708653E-01" delta="0.500000000000E-02" rmax="44.2674114500" />
<grid-data>
  0.000000000000E+00  5.054917964046E-03  1.009680193746E-02  1.514681294670E-02
  2.016756950152E-02  2.529783174994E-02  3.061762502401E-02  3.575346707549E-02
  4.076653503389E-02  4.593131983604E-02  5.113679882137E-02  5.625713842976E-02
  6.189017883894E-02  6.727989812235E-02  7.313898224683E-02  7.856551971204E-02
  8.439467843280E-02  8.958135458679E-02  9.508679028850E-02  1.009305756658E-01
  1.071335048047E-01  1.123692191118E-01  1.178608076606E-01  1.236207752640E-01
  1.296622378566E-01  1.359989523613E-01  1.426453480144E-01  1.478424498244E-01
  1.532289014281E-01  1.588116015445E-01  1.645977002384E-01  1.705946080783E-01
  1.768100056273E-01  1.832518532800E-01  1.899284014579E-01  1.968482011761E-01
  2.040201149951E-01  2.114533283713E-01  2.165586575315E-01  2.217872497590E-01
  2.271420811171E-01  2.326261995236E-01  2.382427264849E-01  2.439948588732E-01
  2.498858707458E-01  2.559191152091E-01  2.620980263267E-01  2.684261210743E-01
  2.749070013416E-01  2.815443559820E-01  2.883419629128E-01  2.953036912653E-01
  3.024335035873E-01  3.097354580979E-01  3.172137109982E-01  3.248725188365E-01
  3.327162409313E-01  3.407493418524E-01  3.489763939620E-01  3.574020800179E-01
  3.660311958378E-01  3.748686530301E-01  3.839194817889E-01  3.931888337572E-01
  4.026819849594E-01  4.124043388043E-01  4.223614291604E-01  4.274297663103E-01
  4.325589235060E-01  4.377496305881E-01  4.430026261552E-01  4.483186576690E-01
  4.536984815610E-01  4.591428633398E-01  4.646525776999E-01  4.702284086323E-01
  4.758711495358E-01  4.815816033303E-01  4.873605825702E-01  4.932089095611E-01
  4.991274164758E-01  5.051169454735E-01  5.111783488192E-01  5.173124890050E-01
  5.235202388731E-01  5.298024817396E-01  5.361601115204E-01  5.425940328587E-01
  5.491051612530E-01  5.556944231880E-01  5.623627562663E-01  5.691111093415E-01
  5.759404426536E-01  5.828517279654E-01  5.898459487010E-01  5.969241000854E-01
  6.040871892864E-01  6.113362355579E-01  6.186722703846E-01  6.260963376292E-01
  6.336094936807E-01  6.412128076049E-01  6.489073612962E-01  6.566942496317E-01
  6.645745806273E-01  6.725494755948E-01  6.806200693020E-01  6.887875101336E-01
  6.970529602552E-01  7.054175957783E-01  7.138826069276E-01  7.224491982107E-01
  7.311185885893E-01  7.398920116523E-01  7.487707157922E-01  7.577559643817E-01
  7.668490359542E-01  7.760512243857E-01  7.853638390783E-01  7.947882051473E-01
  8.043256636090E-01  8.139775715723E-01  8.237453024312E-01  8.336302460604E-01
  8.436338090131E-01  8.537574147213E-01  8.640025036979E-01  8.743705337423E-01
  8.848629801472E-01  8.954813359090E-01  9.062271119399E-01  9.171018372832E-01
  9.281070593305E-01  9.392443440425E-01  9.505152761710E-01  9.619214594851E-01
  9.734645169989E-01  9.851460912029E-01  9.969678442973E-01  1.008931458429E+00
  1.021038635930E+00  1.033291099561E+00  1.045690592756E+00  1.058238879869E+00
  1.070937746427E+00  1.083788999385E+00  1.096794467377E+00  1.109956000986E+00
  1.123275472998E+00  1.136754778673E+00  1.150395836018E+00  1.164200586050E+00
  1.178170993082E+00  1.192309044999E+00  1.206616753539E+00  1.221096154582E+00
  1.235749308437E+00  1.250578300138E+00  1.265585239740E+00  1.280772262617E+00
  1.296141529768E+00  1.311695228125E+00  1.327435570863E+00  1.343364797713E+00
  1.359485175286E+00  1.375798997389E+00  1.392308585358E+00  1.409016288382E+00
  1.425924483843E+00  1.443035577649E+00  1.460352004580E+00  1.477876228635E+00
  1.495610743379E+00  1.513558072300E+00  1.531720769167E+00  1.550101418397E+00
  1.568702635418E+00  1.587527067043E+00  1.606577391848E+00  1.625856320550E+00
  1.645366596396E+00  1.665110995553E+00  1.685092327500E+00  1.705313435430E+00
  1.725777196655E+00  1.746486523015E+00  1.767444361291E+00  1.788653693626E+00
  1.810117537950E+00  1.831838948405E+00  1.853821015786E+00  1.876066867976E+00
  1.898579670391E+00  1.921362626436E+00  1.944418977953E+00  1.967752005689E+00
  1.991365029757E+00  2.015261410114E+00  2.039444547035E+00  2.063917881600E+00
  2.088684896179E+00  2.113749114933E+00  2.139114104312E+00  2.164783473564E+00
  2.190760875247E+00  2.217050005750E+00  2.243654605819E+00  2.270578461089E+00
  2.297825402622E+00  2.325399307453E+00  2.353304099143E+00  2.381543748332E+00
  2.410122273312E+00  2.439043740592E+00  2.468312265479E+00  2.497932012665E+00
  2.527907196817E+00  2.558242083179E+00  2.588940988177E+00  2.620008280035E+00
  2.651448379395E+00  2.683265759948E+00  2.715464949067E+00  2.748050528456E+00
  2.781027134798E+00  2.814399460415E+00  2.848172253940E+00  2.882350320988E+00
  2.916938524839E+00  2.951941787138E+00  2.987365088583E+00  3.023213469646E+00
  3.059492031282E+00  3.096205935657E+00  3.133360406885E+00  3.170960731768E+00
  3.209012260549E+00  3.247520407676E+00  3.286490652568E+00  3.325928540399E+00
  3.365839682883E+00  3.406229759078E+00  3.447104516187E+00  3.488469770381E+00
  3.530331407626E+00  3.572695384517E+00  3.615567729131E+00  3.658954541881E+00
  3.702861996384E+00  3.747296340340E+00  3.792263896424E+00  3.837771063181E+00
  3.883824315940E+00  3.930430207731E+00  3.977595370224E+00  4.025326514666E+00
  4.073630432842E+00  4.122513998036E+00  4.171984166013E+00  4.222047976005E+00
  4.272712551717E+00  4.323985102338E+00  4.375872923566E+00  4.428383398648E+00
  4.481523999432E+00  4.535302287425E+00  4.589725914875E+00  4.644802625853E+00
  4.700540257363E+00  4.756946740452E+00  4.814030101337E+00  4.871798462553E+00
  4.930260044104E+00  4.989423164633E+00  5.049296242609E+00  5.109887797520E+00
  5.171206451090E+00  5.233260928503E+00  5.296060059645E+00  5.359612780361E+00
  5.423928133725E+00  5.489015271330E+00  5.554883454586E+00  5.621542056041E+00
  5.689000560713E+00  5.757268567442E+00  5.826355790251E+00  5.896272059734E+00
  5.967027324451E+00  6.038631652345E+00  6.111095232173E+00  6.184428374959E+00
  6.258641515458E+00  6.333745213644E+00  6.409750156208E+00  6.486667158082E+00
  6.564507163979E+00  6.643281249947E+00  6.723000624946E+00  6.803676632445E+00
  6.885320752035E+00  6.967944601059E+00  7.051559936272E+00  7.136178655507E+00
  7.221812799373E+00  7.308474552966E+00  7.396176247601E+00  7.484930362573E+00
  7.574749526923E+00  7.665646521247E+00  7.757634279501E+00  7.850725890855E+00
  7.944934601546E+00  8.040273816764E+00  8.136757102565E+00  8.234398187796E+00
  8.333210966050E+00  8.433209497642E+00  8.534408011614E+00  8.636820907753E+00
  8.740462758647E+00  8.845348311750E+00  8.951492491491E+00  9.058910401389E+00
  9.167617326206E+00  9.277628734120E+00  9.388960278930E+00  9.501627802277E+00
  9.615647335904E+00  9.731035103935E+00  9.847807525182E+00  9.965981215485E+00
  1.008557299007E+01  1.020659986595E+01  1.032907906434E+01  1.045302801311E+01
  1.057846434927E+01  1.070540592146E+01  1.083387079252E+01  1.096387724203E+01
  1.109544376894E+01  1.122858909416E+01  1.136333216329E+01  1.149969214925E+01
  1.163768845504E+01  1.177734071650E+01  1.191866880510E+01  1.206169283076E+01
  1.220643314473E+01  1.235291034247E+01  1.250114526658E+01  1.265115900978E+01
  1.280297291789E+01  1.295660859291E+01  1.311208789602E+01  1.326943295078E+01
  1.342866614619E+01  1.358981013994E+01  1.375288786162E+01  1.391792251596E+01
  1.408493758615E+01  1.425395683718E+01  1.442500431923E+01  1.459810437106E+01
  1.477328162351E+01  1.495056100300E+01  1.512996773503E+01  1.531152734785E+01
  1.549526567603E+01  1.568120886414E+01  1.586938337051E+01  1.605981597095E+01
  1.625253376261E+01  1.644756416776E+01  1.664493493777E+01  1.684467415702E+01
  1.704681024691E+01  1.725137196987E+01  1.745838843351E+01  1.766788909471E+01
  1.787990376385E+01  1.809446260901E+01  1.831159616032E+01  1.853133531425E+01
  1.875371133802E+01  1.897875587407E+01  1.920650094456E+01  1.943697895590E+01
  1.967022270337E+01  1.990626537581E+01  2.014514056032E+01  2.038688224704E+01
  2.063152483401E+01  2.087910313201E+01  2.112965236960E+01  2.138320819803E+01
  2.163980669641E+01  2.189948437677E+01  2.216227818929E+01  2.242822552756E+01
  2.269736423389E+01  2.296973260470E+01  2.324536939595E+01  2.352431382871E+01
  2.380660559465E+01  2.409228486179E+01  2.438139228013E+01  2.467396898749E+01
  2.497005661534E+01  2.526969729472E+01  2.557293366226E+01  2.587980886621E+01
  2.619036657260E+01  2.650465097147E+01  2.682270678313E+01  2.714457926453E+01
  2.747031421570E+01  2.779995798629E+01  2.813355748213E+01  2.847116017191E+01
  2.881281409397E+01  2.915856786310E+01  2.950847067746E+01  2.986257232559E+01
  3.022092319350E+01  3.058357427182E+01  3.095057716308E+01  3.132198408904E+01
  3.169784789810E+01  3.207822207288E+01  3.246316073776E+01  3.285271866661E+01
  3.324695129061E+01  3.364591470610E+01  3.404966568257E+01  3.445826167076E+01
  3.487176081081E+01  3.529022194054E+01  3.571370460383E+01  3.614226905907E+01
  3.657597628778E+01  3.701488800323E+01  3.745906665927E+01  3.790857545918E+01
  3.836347836469E+01  3.882384010507E+01  3.928972618633E+01  3.976120290057E+01
  4.023833733537E+01  4.072119738340E+01  4.120985175200E+01  4.170436997302E+01
  4.220482241270E+01  4.271128028165E+01  4.322381564503E+01  4.374250143277E+01
  4.426741144996E+01
</grid-data>
</grid>
<valence-charge total-charge="17" is-unscreening-charge="yes"
 rescaled-to-z-pseudo="no">
<radfunc>
<data npts="457">
  1.056785876263E-02  1.059691040305E-02  1.069089862429E-02  1.087152361819E-02
  1.117211963677E-02  1.165486990296E-02  1.241403271104E-02  1.348112025312E-02
  1.493271201212E-02  1.696145655482E-02  1.968089607748E-02  2.315553702371E-02
  2.807399295374E-02  3.404838581177E-02  4.219218689932E-02  5.150467777399E-02
  6.368155801569E-02  7.665343665534E-02  9.288913936190E-02  1.132127658583E-01
  1.386525886480E-01  1.635388255590E-01  1.933090723525E-01  2.289090581685E-01
  2.714605350292E-01  3.222914238681E-01  3.829702253696E-01  4.360420188012E-01
  4.965829525195E-01  5.656033326369E-01  6.442391694679E-01  7.337651189794E-01
  8.356080809300E-01  9.513612940246E-01  1.082798698895E+00  1.231889253786E+00
  1.400810782926E+00  1.591962811162E+00  1.733037838763E+00  1.885997345559E+00
  2.051729127472E+00  2.231169837317E+00  2.425304868637E+00  2.635167668559E+00
  2.861838374124E+00  3.106441654906E+00  3.370143632659E+00  3.654147736533E+00
  3.959689340285E+00  4.288029016206E+00  4.640444229652E+00  5.018219288656E+00
  5.422633355665E+00  5.854946323834E+00  6.316382359392E+00  6.808110915419E+00
  7.331225032102E+00  7.886716755630E+00  8.475449533676E+00  9.098127481754E+00
  9.755261463178E+00  1.044713198787E+01  1.117374901372E+01  1.193480883021E+01
  1.272964831965E+01  1.355719702742E+01  1.441592763076E+01  1.485637153797E+01
  1.530380557535E+01  1.575788792495E+01  1.621823885068E+01  1.668443922257E+01
  1.715602909611E+01  1.763250636014E+01  1.811332546805E+01  1.859789626793E+01
  1.908558294813E+01  1.957570311596E+01  2.006752702803E+01  2.056027699157E+01
  2.105312695697E+01  2.154520232258E+01  2.203557997310E+01  2.252328857393E+01
  2.300730914361E+01  2.348657592718E+01  2.395997759295E+01  2.442635877498E+01
  2.488452198332E+01  2.533322990294E+01  2.577120810159E+01  2.619714816508E+01
  2.660971127714E+01  2.700753225839E+01  2.738922407693E+01  2.775338283962E+01
  2.809859327007E+01  2.842343467522E+01  2.872648739814E+01  2.900633974977E+01
  2.926159540707E+01  2.949088125907E+01  2.969285567634E+01  2.986621717220E+01
  3.000971341748E+01  3.012215056274E+01  3.020240281430E+01  3.024942220246E+01
  3.026224847228E+01  3.024001901900E+01  3.018197878239E+01  3.008749000649E+01
  2.995604176362E+01  2.978725913507E+01  2.958091193418E+01  2.933692285289E+01
  2.905537490817E+01  2.873651806203E+01  2.838077488767E+01  2.798874515421E+01
  2.756120920503E+01  2.709913000882E+01  2.660365376918E+01  2.607610898723E+01
  2.551800388374E+01  2.493102210048E+01  2.431701661823E+01  2.367800184714E+01
  2.301614386798E+01  2.233374882621E+01  2.163324950799E+01  2.091719015516E+01
  2.018820960632E+01  1.944902288227E+01  1.870240136554E+01  1.795115175546E+01
  1.719809401102E+01  1.644603852351E+01  1.569776278797E+01  1.495598786688E+01
  1.422335496008E+01  1.350240241046E+01  1.279554348542E+01  1.210504527830E+01
  1.143300907129E+01  1.078135249115E+01  1.015179377194E+01  9.545838412885E+00
  8.964768486712E+00  8.409634812792E+00  7.881252161615E+00  7.380197603222E+00
  6.906812052977E+00  6.461205005038E+00  6.043262378447E+00  5.652657334740E+00
  5.288863861137E+00  4.951172851725E+00  4.638710362603E+00  4.350457667595E+00
  4.085272700703E+00  3.841912441549E+00  3.619055781954E+00  3.415326406421E+00
  3.229315227146E+00  3.059601935282E+00  2.904775263994E+00  2.763451604379E+00
  2.634291671018E+00  2.516014977847E+00  2.407411954787E+00  2.307353608550E+00
  2.214798704475E+00  2.128798517278E+00  2.048498778078E+00  1.973137439459E+00
  1.902039390630E+00  1.834612622129E+00  1.770344485001E+00  1.708795974318E+00
  1.649595722785E+00  1.592433537957E+00  1.537053797711E+00  1.483248912488E+00
  1.430853030263E+00  1.379736119252E+00  1.329798522077E+00  1.280966036028E+00
  1.233185539062E+00  1.186421273211E+00  1.140652122645E+00  1.095869567218E+00
  1.052075199692E+00  1.009278187224E+00  9.674928506681E-01  9.267350446327E-01
  8.870186789051E-01  8.483552148755E-01  8.107540811876E-01  7.742224269434E-01
  7.387651528398E-01  7.043849220321E-01  6.710821911683E-01  6.388552565152E-01
  6.077003132507E-01  5.776115264077E-01  5.485811118845E-01  5.205994260287E-01
  4.936550623702E-01  4.677349541567E-01  4.428244814274E-01  4.189075814407E-01
  3.959668613554E-01  3.739837121803E-01  3.529384229166E-01  3.328102943440E-01
  3.135777513797E-01  2.952184534872E-01  2.777094025050E-01  2.610270473182E-01
  2.451473850217E-01  2.300460580779E-01  2.156984472065E-01  2.020797597369E-01
  1.891651132230E-01  1.769296141762E-01  1.653484318223E-01  1.543968668367E-01
  1.440504150522E-01  1.342848261751E-01  1.250761575804E-01  1.164008232857E-01
  1.082356382322E-01  1.005578580250E-01  9.334521430098E-02  8.657594591115E-02
  8.022882611309E-02  7.428318597838E-02  6.871893422282E-02  6.351657366878E-02
  5.865721454626E-02  5.412258483468E-02  4.989503784055E-02  4.595755719748E-02
  4.229375946535E-02  3.888789449583E-02  3.572484372069E-02  3.279011651035E-02
  3.006984474092E-02  2.755077570075E-02  2.522026346098E-02  2.306625882971E-02
  2.107729800607E-02  1.924249004759E-02  1.755150326345E-02  1.599455064497E-02
  1.456237444460E-02  1.324623001447E-02  1.203786901520E-02  1.092952210487E-02
  9.913881216724E-03  8.984081532191E-03  8.133683252844E-03  7.356653271191E-03
  6.647346835690E-03  6.000489299995E-03  5.411158040428E-03  4.874764619072E-03
  4.387037262802E-03  3.944003721202E-03  3.541974558737E-03  3.177526928898E-03
  2.847488870489E-03  2.548924158807E-03  2.279117737313E-03  2.035561748651E-03
  1.815942177469E-03  1.618126111624E-03  1.440149623018E-03  1.280206264459E-03
  1.136636174728E-03  1.007915780357E-03  8.926480795000E-04  7.895534907633E-04
  6.974612477898E-04  6.153013188862E-04  5.420968298803E-04  4.769569677209E-04
  4.190703420070E-04  3.676987816210E-04  3.221715438797E-04  2.818799140695E-04
  2.462721738408E-04  2.148489176743E-04  1.871586974415E-04  1.627939759498E-04
  1.413873712490E-04  1.226081743652E-04  1.061591240005E-04  9.177342258322E-05
  7.921197886092E-05  6.826086299773E-05  5.872896086267E-05  5.044581487818E-05
  4.325963944050E-05  3.703549952761E-05  3.165364168068E-05  2.700796708394E-05
  2.300463698057E-05  1.956080115183E-05  1.660344065571E-05  1.406831647354E-05
  1.189901614971E-05  1.004609093363E-05  8.466276344232E-06  7.121789477864E-06
  5.979696769792E-06  5.011346298618E-06  4.191859091025E-06  3.499674241563E-06
  2.916143008048E-06  2.425167377193E-06  2.012878916718E-06  1.667354039089E-06
  1.378362097546E-06  1.137143017002E-06  9.362114303391E-07  7.691845443822E-07
  6.306311993585E-07  5.159398108707E-07  4.212030944676E-07  3.431176699649E-07
  2.788968260174E-07  2.261948954417E-07  1.830418488525E-07  1.477868587889E-07
  1.190497192058E-07  9.567912655553E-08  7.671693928834E-08  6.136763306912E-08
  4.897225997786E-08  3.898630205366E-08  3.096088338911E-08  2.452687119520E-08
  1.938145543675E-08  1.527684936358E-08  1.201080008873E-08  9.418639821290E-09
  7.366644947633E-09  5.746502343316E-09  4.470710527489E-09  3.468767952948E-09
  2.684022236228E-09  2.071072822104E-09  1.593635765035E-09  1.222793287341E-09
  9.355628045351E-10  7.137304307783E-10  5.429028065320E-10  4.117386183367E-10
  3.113275786581E-10  2.346900541612E-10  1.763751082445E-10  1.321385768343E-10
  9.868602938574E-11  7.346817076410E-11  5.451849337551E-11  4.032486129067E-11
  2.972825848415E-11  2.184321276663E-11  1.599545928469E-11  1.167326998166E-11
  8.489579945690E-12  6.152615058991E-12  4.443190543860E-12  3.197225997951E-12
  2.292325336688E-12  1.637513076184E-12  1.165412698810E-12  8.263076369472E-13
  5.836482668435E-13  4.106654475777E-13  2.878276605688E-13  2.009388502035E-13
  1.397210008963E-13  9.676202938457E-14  6.673791142702E-14  4.583985291610E-14
  3.135415616894E-14  2.135533494697E-14  1.448287658514E-14  9.779529856762E-15
  6.574656799283E-15  4.400450446092E-15  2.932019389488E-15  1.944726821407E-15
  1.283951329484E-15  8.437475903218E-16  5.518564124650E-16  3.592232482289E-16
  2.327032709687E-16  1.500081440403E-16  9.622229829082E-17  6.141281691444E-17
  3.899762545682E-17  2.463690380448E-17  1.548371917124E-17  9.680042134720E-18
  6.019531181289E-18  3.723063650937E-18  0.000000000000E+00  0.000000000000E+00
  0.000000000000E+00  0.000000000000E+00  0.000000000000E+00  0.000000000000E+00
  0.000000000000E+00  0.000000000000E+00  0.000000000000E+00  0.000000000000E+00
  0.000000000000E+00  0.000000000000E+00  0.000000000000E+00  0.000000000000E+00
  0.000000000000E+00  0.000000000000E+00  0.000000000000E+00  0.000000000000E+00
  0.000000000000E+00  0.000000000000E+00  0.000000000000E+00  0.000000000000E+00
  0.000000000000E+00  0.000000000000E+00  0.000000000000E+00  0.000000000000E+00
  0.000000000000E+00  0.000000000000E+00  0.000000000000E+00  0.000000000000E+00
  0.000000000000E+00  0.000000000000E+00  0.000000000000E+00  0.000000000000E+00
  0.000000000000E+00  0.000000000000E+00  0.000000000000E+00  0.000000000000E+00
  0.000000000000E+00  0.000000000000E+00  0.000000000000E+00  0.000000000000E+00
  0.000000000000E+00  0.000000000000E+00  0.000000000000E+00  0.000000000000E+00
  0.000000000000E+00
</data>
</radfunc>
</valence-charge>
<pseudocore-charge matching-radius="0.641212807605"
 number-of-continuous-derivatives="4">
<annotation model-charge-form="Teter function with specified parameters" />
<radfunc>
<data npts="290">
  1.052030555908E+02  1.051938750869E+02  1.051664326750E+02  1.051206533086E+02
  1.050570125997E+02  1.049733464706E+02  1.048667391323E+02  1.047446975873E+02
  1.046075170886E+02  1.044475992800E+02  1.042674172829E+02  1.040716593213E+02
  1.038351964120E+02  1.035883777730E+02  1.032974070170E+02  1.030070240929E+02
  1.026729026684E+02  1.023564511003E+02  1.020010018910E+02  1.016019049071E+02
  1.011539973510E+02  1.007567033769E+02  1.003213160914E+02  9.984436834826E+01
  9.932211629467E+01  9.875052565751E+01  9.812525933353E+01  9.761829941760E+01
  9.707645744879E+01  9.649755036408E+01  9.587929185966E+01  9.521929293748E+01
  9.451506356570E+01  9.376401565838E+01  9.296346760493E+01  9.211065060615E+01
  9.120271710127E+01  9.023675159896E+01  8.955906976394E+01  8.885338673962E+01
  8.811880755210E+01  8.735443520061E+01  8.655937391888E+01  8.573273281915E+01
  8.487362994452E+01  8.398119675585E+01  8.305458307920E+01  8.209296253921E+01
  8.109553850291E+01  8.006155055695E+01  7.899028153926E+01  7.788106514334E+01
  7.673329410985E+01  7.554642901593E+01  7.432000766704E+01  7.305365508974E+01
  7.174709411610E+01  7.040015654127E+01  6.901279482508E+01  6.758509429658E+01
  6.611728580617E+01  6.460975875475E+01  6.306307441129E+01  6.147797941116E+01
  5.985541930592E+01  5.819655201210E+01  5.650276098167E+01  5.564326619981E+01
  5.477566789012E+01  5.390020794971E+01  5.301714461036E+01  5.212675275496E+01
  5.122932421198E+01  5.032516802517E+01  4.941461069605E+01  4.849799639629E+01
  4.757568714710E+01  4.664806296285E+01  4.571552195567E+01  4.477848039794E+01
  4.383737273963E+01  4.289265157695E+01  4.194478756932E+01  4.099426930099E+01
  4.004160308419E+01  3.908731270042E+01  3.813193907634E+01  3.717603989130E+01
  3.622018911296E+01  3.526497645810E+01  3.431100677546E+01  3.335889934789E+01
  3.240928711103E+01  3.146281578616E+01  3.052014292497E+01  2.958193686446E+01
  2.864887559035E+01  2.772164550787E+01  2.680094011928E+01  2.588745860774E+01
  2.498190432796E+01  2.408498320438E+01  2.319740203836E+01  2.231986672662E+01
  2.145308039367E+01  2.059774144188E+01  1.975454152368E+01  1.892416344110E+01
  1.810727897883E+01  1.730454667789E+01  1.651660955789E+01  1.574409279698E+01
  1.498760137932E+01  1.424771772125E+01  1.352499928790E+01  1.281997621334E+01
  1.213314893813E+01  1.146498587901E+01  1.081592114652E+01  1.018635232691E+01
  9.576638345599E+00  8.987097429939E+00  8.418005189623E+00  7.869592833413E+00
  7.342045541046E+00  6.835501009294E+00  6.350048190950E+00  5.885726245203E+00
  5.442523717274E+00  5.020377964380E+00  4.619174844051E+00  4.238748679468E+00
  3.878882514926E+00  3.539308672626E+00  3.219709619863E+00  2.919719153215E+00
  2.638923903708E+00  2.376865163770E+00  2.133041033930E+00  1.906908883365E+00
  1.697888115127E+00  1.505363222943E+00  1.328687122651E+00  1.167184737415E+00
  1.020156811918E+00  8.868839268856E-01  7.666306815334E-01  6.586500080480E-01
  5.621875789345E-01  4.764862652129E-01  4.007906010133E-01  3.343512082208E-01
  2.764291335283E-01  2.263000496435E-01  1.832582725238E-01  1.466205474497E-01
  1.157295585159E-01  8.995711877434E-02  6.870700179312E-02  5.141737980114E-02
  3.756283884361E-02  2.665594741265E-02  1.824836177144E-02  1.193145855002E-02
  7.336493028561E-03  4.134289687246E-03  2.034479914799E-03  7.843100386312E-04
  1.670508592155E-04  4.742338106215E-08  1.324546347875E-04  4.427102583991E-04
  8.358017240907E-04  1.240386687256E-03  1.605829404328E-03  1.899215507961E-03
  2.102406644246E-03  2.209193637972E-03  2.222602413893E-03  2.152400914805E-03
  2.012847875799E-03  1.820715753682E-03  1.593610643307E-03  1.348601959819E-03
  1.101164387835E-03  8.644244813402E-04  6.486947370005E-04  4.612693457078E-04
  3.064485116186E-04  1.857525262666E-04  9.828294253911E-05  4.118637096523E-05
  1.017668338563E-05  7.371504157974E-08  5.320754327464E-06  2.044894241700E-05
  4.046381900621E-05  6.113721287493E-05  7.919599912525E-05  9.240741544538E-05
  9.956814196334E-05  1.004107405328E-04  9.544593431412E-05  8.576231006168E-05
  7.280619873834E-05  5.816373747606E-05  4.336459112922E-05  2.972281046746E-05
  1.822524228622E-05  9.472286261683E-06  3.670158265105E-06  6.687060432243E-07
  3.470667245199E-08  1.147823731231E-06  3.305235877391E-06  5.821414887738E-06
  8.111497705144E-06  9.749864212069E-06  1.049946708865E-05  1.031164584511E-05
  9.300057397315E-06  7.695481673483E-06  5.790236130912E-06  3.881544816622E-06
  2.222437095271E-06  9.867779368553E-07  2.522082790401E-07  1.573839642349E-09
  0.000000000000E+00  0.000000000000E+00  0.000000000000E+00  0.000000000000E+00
  0.000000000000E+00  0.000000000000E+00  0.000000000000E+00  0.000000000000E+00
  0.000000000000E+00  0.000000000000E+00  0.000000000000E+00  0.000000000000E+00
  0.000000000000E+00  0.000000000000E+00  0.000000000000E+00  0.000000000000E+00
  0.000000000000E+00  0.000000000000E+00  0.000000000000E+00  0.000000000000E+00
  0.000000000000E+00  0.000000000000E+00  0.000000000000E+00  0.000000000000E+00
  0.000000000000E+00  0.000000000000E+00  0.000000000000E+00  0.000000000000E+00
  0.000000000000E+00  0.000000000000E+00  0.000000000000E+00  0.000000000000E+00
  0.000000000000E+00  0.000000000000E+00  0.000000000000E+00  0.000000000000E+00
  0.000000000000E+00  0.000000000000E+00  0.000000000000E+00  0.000000000000E+00
  0.000000000000E+00  0.000000000000E+00  0.000000000000E+00  0.000000000000E+00
  0.000000000000E+00  0.000000000000E+00  0.000000000000E+00  0.000000000000E+00
  0.000000000000E+00  0.000000000000E+00  0.000000000000E+00  0.000000000000E+00
  0.000000000000E+00  0.000000000000E+00  0.000000000000E+00  0.000000000000E+00
  0.000000000000E+00  0.000000000000E+00  0.000000000000E+00  0.000000000000E+00
  0.000000000000E+00  0.000000000000E+00
</data>
</radfunc>
</pseudocore-charge>
<semilocal-potentials set="scalar_relativistic">
<slps n="4" l="s" rc="1.81011753795" eref="-0.739905793628">
<radfunc>
<data npts="290">
  4.122913782317E+01  4.119834293734E+01  4.110645791571E+01  4.095373195690E+01
  4.074256625816E+01  4.046696682873E+01  4.011906896323E+01  3.972523445929E+01
  3.928809155040E+01  3.878575312048E+01  3.822891007603E+01  3.763463964833E+01
  3.693124548210E+01  3.621337613650E+01  3.538775442863E+01  3.458526013203E+01
  3.368733660109E+01  3.286096963536E+01  3.195947674176E+01  3.097943347140E+01
  2.991800359891E+01  2.900883494225E+01  2.804558947386E+01  2.702806608264E+01
  2.595655922331E+01  2.483190931646E+01  2.365554584727E+01  2.274054640508E+01
  2.179870142899E+01  2.083131909388E+01  1.983991231559E+01  1.882619468421E+01
  1.779207316982E+01  1.673963755414E+01  1.567114663483E+01  1.458901134804E+01
  1.349577505585E+01  1.239409134281E+01  1.165629261884E+01  1.091678348970E+01
  1.017640000526E+01  9.435983028961E+00  8.696374656427E+00  7.958414658950E+00
  7.222936989016E+00  6.490766384410E+00  5.762715105941E+00  5.039579841868E+00
  4.322138809616E+00  3.611149082389E+00  2.907344164938E+00  2.211431839077E+00
  1.524092295668E+00  8.459765658034E-01  1.777052598941E-01 -4.801323805711E-01
 -1.126979117629E+00 -1.762310040426E+00 -2.385632583717E+00 -2.996486250261E+00
 -3.594442048872E+00 -4.179101662450E+00 -4.750096362763E+00 -5.307085691140E+00
 -5.849755926726E+00 -6.377818366659E+00 -6.891007445409E+00 -7.141947318962E+00
 -7.389078723743E+00 -7.632374059943E+00 -7.871806781151E+00 -8.107351325861E+00
 -8.338983049037E+00 -8.566678154048E+00 -8.790413625366E+00 -9.010167162369E+00
 -9.225917114670E+00 -9.437642419325E+00 -9.645322540366E+00 -9.848937411063E+00
 -1.004846737936E+01 -1.024389315692E+01 -1.043519577238E+01 -1.062235652906E+01
 -1.080535696807E+01 -1.098417883698E+01 -1.115880406499E+01 -1.132921474511E+01
 -1.149539312412E+01 -1.165732160108E+01 -1.181498273518E+01 -1.196835926386E+01
 -1.211743413187E+01 -1.226219053254E+01 -1.240261196173E+01 -1.253868228563E+01
 -1.267038582304E+01 -1.279770744283E+01 -1.292063267717E+01 -1.303914785076E+01
 -1.315324022621E+01 -1.326289816530E+01 -1.336811130554E+01 -1.346887075107E+01
 -1.356516927652E+01 -1.365700154188E+01 -1.374436431617E+01 -1.382725670722E+01
 -1.390568039422E+01 -1.397963985983E+01 -1.404914261789E+01 -1.411419943304E+01
 -1.417482452816E+01 -1.423103577596E+01 -1.428285487082E+01 -1.433030747790E+01
 -1.437342335622E+01 -1.441223645358E+01 -1.444678497110E+01 -1.447711139614E+01
 -1.450326250246E+01 -1.452528931690E+01 -1.454324705233E+01 -1.455719500618E+01
 -1.456719642427E+01 -1.457331832880E+01 -1.457563130933E+01 -1.457420927440E+01
 -1.456912916090E+01 -1.456047059710E+01 -1.454831551439E+01 -1.453274770146E+01
 -1.451385229409E+01 -1.449171519283E+01 -1.446642240086E+01 -1.443805927467E+01
 -1.440670968222E+01 -1.437245506615E+01 -1.433537341463E+01 -1.429553815066E+01
 -1.425301696072E+01 -1.420787059804E+01 -1.416015171234E+01 -1.410990377691E+01
 -1.405716020255E+01 -1.400194374263E+01 -1.394426629992E+01 -1.388412923630E+01
 -1.382152425556E+01 -1.375643486979E+01 -1.368883836951E+01 -1.361870809763E+01
 -1.354601568898E+01 -1.347073279976E+01 -1.339283174915E+01 -1.331228447545E+01