<?xml version="1.0" encoding="UTF-8" ?>
<psml version="1.1" energy_unit="hartree" length_unit="bohr"
 uuid="fca572c0-1d5f-11e8-4546-6dfaff938818"
 xmlns="http://esl.cecam.org/PSML/ns/1.1">
<provenance creator="ONCVPSP-3.3.0+psml-3.3.0-73 (scalar-relativistic)"
 date="2018-03-01">
<annotation action="semilocal-pseudopotential-generation"
 action-cont="projectors-generation" />
<input-file name="oncvpsp-input">
<![CDATA[# atsym z nc nv iexc psfile
Br 35 6 2 -116133 upf
# n l f
1 0 2.0
2 0 2.0
2 1 6.0
3 0 2.0
3 1 6.0
3 2 10.0
4 0 2.0
4 1 5.0
# lmax
2
# l rc ep ncon nbas qcut
0 1.8 0.0 4 9 5.9
1 1.5 0.0 4 8 7.4
2 1.9 0.1 4 9 7.4
# lloc lpopt rc5 dvloc0
4 5 1.5 0.0
# l nproj debl
0 2 3.2
1 2 4.0
2 2 2.5
# icmod fcfact
3 8.0 1.21
# epsh1 epsh2 depsh
-12.0 12.0 0.02
# rlmax drl
6.0 0.01
 0
]]>
</input-file>
</provenance>
<pseudo-atom-spec atomic-label="Br" atomic-number="35" z-pseudo="7"
 flavor="Hamann&apos;s oncvpsp" relativity="scalar" spin-dft="no"
 core-corrections="yes">
<annotation pseudo-energy="-13.4810200393" />
<exchange-correlation>
<annotation oncvpsp-xc-code="-116133" oncvpsp-xc-type="libxc-interface" />
<libxc-info number-of-functionals="2">
<functional name="Perdew, Burke &amp; Ernzerhof SOL (GGA)" type="exchange"
 id="116" />
<functional name="Perdew, Burke &amp; Ernzerhof SOL (GGA)" type="correlation"
 id="133" />
</libxc-info>
</exchange-correlation>
<valence-configuration total-valence-charge="7">
<shell n="4" l="s" occupation="2" />
<shell n="4" l="p" occupation="5" />
</valence-configuration>
</pseudo-atom-spec>
<grid npts="457">
<annotation type="sampled from oncvpsp log grid"
 recipe="r(i:1..N) = r1*exp(a*(i-1)) + r=0; resampled"
 recipe-cont="r1: scale; a: step" scale="0.142857142857E-04"
 step="0.119285708653E-01" delta="0.500000000000E-02" rmax="44.2674114500" />
<grid-data>
  0.000000000000E+00  5.054917964046E-03  1.009680193746E-02  1.514681294670E-02
  2.016756950152E-02  2.529783174994E-02  3.061762502401E-02  3.575346707549E-02
  4.076653503389E-02  4.593131983604E-02  5.113679882137E-02  5.625713842976E-02
  6.189017883894E-02  6.727989812235E-02  7.313898224683E-02  7.856551971204E-02
  8.439467843280E-02  8.958135458679E-02  9.508679028850E-02  1.009305756658E-01
  1.071335048047E-01  1.123692191118E-01  1.178608076606E-01  1.236207752640E-01
  1.296622378566E-01  1.359989523613E-01  1.426453480144E-01  1.478424498244E-01
  1.532289014281E-01  1.588116015445E-01  1.645977002384E-01  1.705946080783E-01
  1.768100056273E-01  1.832518532800E-01  1.899284014579E-01  1.968482011761E-01
  2.040201149951E-01  2.114533283713E-01  2.165586575315E-01  2.217872497590E-01
  2.271420811171E-01  2.326261995236E-01  2.382427264849E-01  2.439948588732E-01
  2.498858707458E-01  2.559191152091E-01  2.620980263267E-01  2.684261210743E-01
  2.749070013416E-01  2.815443559820E-01  2.883419629128E-01  2.953036912653E-01
  3.024335035873E-01  3.097354580979E-01  3.172137109982E-01  3.248725188365E-01
  3.327162409313E-01  3.407493418524E-01  3.489763939620E-01  3.574020800179E-01
  3.660311958378E-01  3.748686530301E-01  3.839194817889E-01  3.931888337572E-01
  4.026819849594E-01  4.124043388043E-01  4.223614291604E-01  4.274297663103E-01
  4.325589235060E-01  4.377496305881E-01  4.430026261552E-01  4.483186576690E-01
  4.536984815610E-01  4.591428633398E-01  4.646525776999E-01  4.702284086323E-01
  4.758711495358E-01  4.815816033303E-01  4.873605825702E-01  4.932089095611E-01
  4.991274164758E-01  5.051169454735E-01  5.111783488192E-01  5.173124890050E-01
  5.235202388731E-01  5.298024817396E-01  5.361601115204E-01  5.425940328587E-01
  5.491051612530E-01  5.556944231880E-01  5.623627562663E-01  5.691111093415E-01
  5.759404426536E-01  5.828517279654E-01  5.898459487010E-01  5.969241000854E-01
  6.040871892864E-01  6.113362355579E-01  6.186722703846E-01  6.260963376292E-01
  6.336094936807E-01  6.412128076049E-01  6.489073612962E-01  6.566942496317E-01
  6.645745806273E-01  6.725494755948E-01  6.806200693020E-01  6.887875101336E-01
  6.970529602552E-01  7.054175957783E-01  7.138826069276E-01  7.224491982107E-01
  7.311185885893E-01  7.398920116523E-01  7.487707157922E-01  7.577559643817E-01
  7.668490359542E-01  7.760512243857E-01  7.853638390783E-01  7.947882051473E-01
  8.043256636090E-01  8.139775715723E-01  8.237453024312E-01  8.336302460604E-01
  8.436338090131E-01  8.537574147213E-01  8.640025036979E-01  8.743705337423E-01
  8.848629801472E-01  8.954813359090E-01  9.062271119399E-01  9.171018372832E-01
  9.281070593305E-01  9.392443440425E-01  9.505152761710E-01  9.619214594851E-01
  9.734645169989E-01  9.851460912029E-01  9.969678442973E-01  1.008931458429E+00
  1.021038635930E+00  1.033291099561E+00  1.045690592756E+00  1.058238879869E+00
  1.070937746427E+00  1.083788999385E+00  1.096794467377E+00  1.109956000986E+00
  1.123275472998E+00  1.136754778673E+00  1.150395836018E+00  1.164200586050E+00
  1.178170993082E+00  1.192309044999E+00  1.206616753539E+00  1.221096154582E+00
  1.235749308437E+00  1.250578300138E+00  1.265585239740E+00  1.280772262617E+00
  1.296141529768E+00  1.311695228125E+00  1.327435570863E+00  1.343364797713E+00
  1.359485175286E+00  1.375798997389E+00  1.392308585358E+00  1.409016288382E+00
  1.425924483843E+00  1.443035577649E+00  1.460352004580E+00  1.477876228635E+00
  1.495610743379E+00  1.513558072300E+00  1.531720769167E+00  1.550101418397E+00
  1.568702635418E+00  1.587527067043E+00  1.606577391848E+00  1.625856320550E+00
  1.645366596396E+00  1.665110995553E+00  1.685092327500E+00  1.705313435430E+00
  1.725777196655E+00  1.746486523015E+00  1.767444361291E+00  1.788653693626E+00
  1.810117537950E+00  1.831838948405E+00  1.853821015786E+00  1.876066867976E+00
  1.898579670391E+00  1.921362626436E+00  1.944418977953E+00  1.967752005689E+00
  1.991365029757E+00  2.015261410114E+00  2.039444547035E+00  2.063917881600E+00
  2.088684896179E+00  2.113749114933E+00  2.139114104312E+00  2.164783473564E+00
  2.190760875247E+00  2.217050005750E+00  2.243654605819E+00  2.270578461089E+00
  2.297825402622E+00  2.325399307453E+00  2.353304099143E+00  2.381543748332E+00
  2.410122273312E+00  2.439043740592E+00  2.468312265479E+00  2.497932012665E+00
  2.527907196817E+00  2.558242083179E+00  2.588940988177E+00  2.620008280035E+00
  2.651448379395E+00  2.683265759948E+00  2.715464949067E+00  2.748050528456E+00
  2.781027134798E+00  2.814399460415E+00  2.848172253940E+00  2.882350320988E+00
  2.916938524839E+00  2.951941787138E+00  2.987365088583E+00  3.023213469646E+00
  3.059492031282E+00  3.096205935657E+00  3.133360406885E+00  3.170960731768E+00
  3.209012260549E+00  3.247520407676E+00  3.286490652568E+00  3.325928540399E+00
  3.365839682883E+00  3.406229759078E+00  3.447104516187E+00  3.488469770381E+00
  3.530331407626E+00  3.572695384517E+00  3.615567729131E+00  3.658954541881E+00
  3.702861996384E+00  3.747296340340E+00  3.792263896424E+00  3.837771063181E+00
  3.883824315940E+00  3.930430207731E+00  3.977595370224E+00  4.025326514666E+00
  4.073630432842E+00  4.122513998036E+00  4.171984166013E+00  4.222047976005E+00
  4.272712551717E+00  4.323985102338E+00  4.375872923566E+00  4.428383398648E+00
  4.481523999432E+00  4.535302287425E+00  4.589725914875E+00  4.644802625853E+00
  4.700540257363E+00  4.756946740452E+00  4.814030101337E+00  4.871798462553E+00
  4.930260044104E+00  4.989423164633E+00  5.049296242609E+00  5.109887797520E+00
  5.171206451090E+00  5.233260928503E+00  5.296060059645E+00  5.359612780361E+00
  5.423928133725E+00  5.489015271330E+00  5.554883454586E+00  5.621542056041E+00
  5.689000560713E+00  5.757268567442E+00  5.826355790251E+00  5.896272059734E+00
  5.967027324451E+00  6.038631652345E+00  6.111095232173E+00  6.184428374959E+00
  6.258641515458E+00  6.333745213644E+00  6.409750156208E+00  6.486667158082E+00
  6.564507163979E+00  6.643281249947E+00  6.723000624946E+00  6.803676632445E+00
  6.885320752035E+00  6.967944601059E+00  7.051559936272E+00  7.136178655507E+00
  7.221812799373E+00  7.308474552966E+00  7.396176247601E+00  7.484930362573E+00
  7.574749526923E+00  7.665646521247E+00  7.757634279501E+00  7.850725890855E+00
  7.944934601546E+00  8.040273816764E+00  8.136757102565E+00  8.234398187796E+00
  8.333210966050E+00  8.433209497642E+00  8.534408011614E+00  8.636820907753E+00
  8.740462758647E+00  8.845348311750E+00  8.951492491491E+00  9.058910401389E+00
  9.167617326206E+00  9.277628734120E+00  9.388960278930E+00  9.501627802277E+00
  9.615647335904E+00  9.731035103935E+00  9.847807525182E+00  9.965981215485E+00
  1.008557299007E+01  1.020659986595E+01  1.032907906434E+01  1.045302801311E+01
  1.057846434927E+01  1.070540592146E+01  1.083387079252E+01  1.096387724203E+01
  1.109544376894E+01  1.122858909416E+01  1.136333216329E+01  1.149969214925E+01
  1.163768845504E+01  1.177734071650E+01  1.191866880510E+01  1.206169283076E+01
  1.220643314473E+01  1.235291034247E+01  1.250114526658E+01  1.265115900978E+01
  1.280297291789E+01  1.295660859291E+01  1.311208789602E+01  1.326943295078E+01
  1.342866614619E+01  1.358981013994E+01  1.375288786162E+01  1.391792251596E+01
  1.408493758615E+01  1.425395683718E+01  1.442500431923E+01  1.459810437106E+01
  1.477328162351E+01  1.495056100300E+01  1.512996773503E+01  1.531152734785E+01
  1.549526567603E+01  1.568120886414E+01  1.586938337051E+01  1.605981597095E+01
  1.625253376261E+01  1.644756416776E+01  1.664493493777E+01  1.684467415702E+01
  1.704681024691E+01  1.725137196987E+01  1.745838843351E+01  1.766788909471E+01
  1.787990376385E+01  1.809446260901E+01  1.831159616032E+01  1.853133531425E+01
  1.875371133802E+01  1.897875587407E+01  1.920650094456E+01  1.943697895590E+01
  1.967022270337E+01  1.990626537581E+01  2.014514056032E+01  2.038688224704E+01
  2.063152483401E+01  2.087910313201E+01  2.112965236960E+01  2.138320819803E+01
  2.163980669641E+01  2.189948437677E+01  2.216227818929E+01  2.242822552756E+01
  2.269736423389E+01  2.296973260470E+01  2.324536939595E+01  2.352431382871E+01
  2.380660559465E+01  2.409228486179E+01  2.438139228013E+01  2.467396898749E+01
  2.497005661534E+01  2.526969729472E+01  2.557293366226E+01  2.587980886621E+01
  2.619036657260E+01  2.650465097147E+01  2.682270678313E+01  2.714457926453E+01
  2.747031421570E+01  2.779995798629E+01  2.813355748213E+01  2.847116017191E+01
  2.881281409397E+01  2.915856786310E+01  2.950847067746E+01  2.986257232559E+01
  3.022092319350E+01  3.058357427182E+01  3.095057716308E+01  3.132198408904E+01
  3.169784789810E+01  3.207822207288E+01  3.246316073776E+01  3.285271866661E+01
  3.324695129061E+01  3.364591470610E+01  3.404966568257E+01  3.445826167076E+01
  3.487176081081E+01  3.529022194054E+01  3.571370460383E+01  3.614226905907E+01
  3.657597628778E+01  3.701488800323E+01  3.745906665927E+01  3.790857545918E+01
  3.836347836469E+01  3.882384010507E+01  3.928972618633E+01  3.976120290057E+01
  4.023833733537E+01  4.072119738340E+01  4.120985175200E+01  4.170436997302E+01
  4.220482241270E+01  4.271128028165E+01  4.322381564503E+01  4.374250143277E+01
  4.426741144996E+01
</grid-data>
</grid>
<valence-charge total-charge="7" is-unscreening-charge="yes"
 rescaled-to-z-pseudo="no">
<radfunc>
<data npts="457">
  8.937234214989E-03  8.964214800481E-03  9.044921460727E-03  9.179743570538E-03
  9.367557729264E-03  9.615160444339E-03  9.931793080980E-03  1.029583347470E-02
  1.070703227039E-02  1.118906358870E-02  1.173563695702E-02  1.233362572710E-02
  1.306175991100E-02  1.382857563697E-02  1.474150691994E-02  1.566227975023E-02
  1.673376570836E-02  1.776050138054E-02  1.892765299781E-02  2.025572486887E-02
  2.176852067150E-02  2.313022296218E-02  2.464405286648E-02  2.632843362914E-02
  2.820426282925E-02  3.029527927196E-02  3.262848747336E-02  3.455567997670E-02
  3.665086443952E-02  3.893010381628E-02  4.141114922383E-02  4.411362853120E-02
  4.705925578772E-02  5.027206346444E-02  5.377865956806E-02  5.760851174288E-02
  6.179426049399E-02  6.637206362871E-02  6.966134701944E-02  7.315550251892E-02
  7.686835169309E-02  8.081468622917E-02  8.501033284249E-02  8.947222151621E-02
  9.421845705561E-02  9.926839389688E-02  1.046427140618E-01  1.103635080904E-01
  1.164543587156E-01  1.229404269614E-01  1.298485402550E-01  1.372072820285E-01
  1.450470821668E-01  1.534003075050E-01  1.623013514185E-01  1.717867213544E-01
  1.818951229370E-01  1.926675390346E-01  2.041473018943E-01  2.163801561369E-01
  2.294143100500E-01  2.433004722162E-01  2.580918700709E-01  2.738442464835E-01
  2.906158299037E-01  3.084672730037E-01  3.274615540707E-01  3.374075414504E-01
  3.476638346702E-01  3.582388883666E-01  3.691412662971E-01  3.803796319262E-01
  3.919627378732E-01  4.038994141400E-01  4.161985550350E-01  4.288691047075E-01
  4.419200411974E-01  4.553603589083E-01  4.691990494024E-01  4.834450804155E-01
  4.981073729863E-01  5.131947765903E-01  5.287160421674E-01  5.446797929291E-01
  5.610944928294E-01  5.779684125834E-01  5.953095931169E-01  6.131258063314E-01
  6.314245130701E-01  6.502128181755E-01  6.694974225305E-01  6.892845719871E-01
  7.095800030878E-01  7.303888855021E-01  7.517157611095E-01  7.735644796772E-01
  7.959381310996E-01  8.188389741885E-01  8.422683620286E-01  8.662266639414E-01
  8.907131841354E-01  9.157260771572E-01  9.412622603017E-01  9.673173231846E-01
  9.938854347360E-01  1.020959247928E+00  1.048529802612E+00  1.076586426909E+00
  1.105116637670E+00  1.134106040590E+00  1.163538230659E+00  1.193394693684E+00
  1.223654709739E+00  1.254295259456E+00  1.285290934168E+00  1.316613851001E+00
  1.348233574086E+00  1.380117043141E+00  1.412228510747E+00  1.444529489675E+00
  1.476978711692E+00  1.509532099296E+00  1.542142751812E+00  1.574760947314E+00
  1.607334161758E+00  1.639807106675E+00  1.672121786657E+00  1.704217577771E+00
  1.736031327843E+00  1.767497479382E+00  1.798548215697E+00  1.829113630466E+00
  1.859121920778E+00  1.888499603304E+00  1.917171752966E+00  1.945062263095E+00
  1.972094125731E+00  1.998189730375E+00  2.023271179167E+00  2.047260616173E+00
  2.070080568192E+00  2.091654294320E+00  2.111906141349E+00  2.130761902046E+00
  2.148149173406E+00  2.163997712113E+00  2.178239784700E+00  2.190810510274E+00
  2.201648194140E+00  2.210694651212E+00  2.217895518777E+00  2.223200558860E+00
  2.226563951161E+00  2.227944578295E+00  2.227306305658E+00  2.224618258877E+00
  2.219855102108E+00  2.212997320699E+00  2.204031511567E+00  2.192950684256E+00
  2.179754574848E+00  2.164449973695E+00  2.147051066384E+00  2.127579785362E+00
  2.106066167319E+00  2.082548708844E+00  2.057074710101E+00  2.029700593462E+00
  2.000492181401E+00  1.969524915631E+00  1.936883997719E+00  1.902664430447E+00
  1.866970939241E+00  1.829917754201E+00  1.791627725591E+00  1.752229135299E+00
  1.711851158711E+00  1.670622428324E+00  1.628670987626E+00  1.586123173110E+00
  1.543102895353E+00  1.499730873070E+00  1.456123904384E+00  1.412394184307E+00
  1.368648683943E+00  1.324988606643E+00  1.281508935370E+00  1.238298083825E+00
  1.195437661412E+00  1.153002498385E+00  1.111061356030E+00  1.069677999098E+00
  1.028911407892E+00  9.888156290072E-01  9.494399311857E-01  9.108288741049E-01
  8.730224101500E-01  8.360559994293E-01  7.999607381014E-01  7.647634985295E-01
  7.304870797811E-01  6.971503670460E-01  6.647684984550E-01  6.333530381466E-01
  6.029121540561E-01  5.734507992746E-01  5.449708957652E-01  5.174715193110E-01
  4.909490846401E-01  4.653975297453E-01  4.408084984931E-01  4.171715206907E-01
  3.944741888568E-01  3.727023310183E-01  3.518401789289E-01  3.318705311789E-01
  3.127749107388E-01  2.945337165448E-01  2.771263688136E-01  2.605314477758E-01
  2.447268257324E-01  2.296897921803E-01  2.153971719744E-01  2.018254364735E-01
  1.889508076742E-01  1.767493553804E-01  1.651970874950E-01  1.542700335539E-01
  1.439443216550E-01  1.341962489632E-01  1.250023459951E-01  1.163394349097E-01
  1.081846820479E-01  1.005156449769E-01  9.331031430771E-02  8.654715055915E-02
  8.020511634576E-02  7.426370416853E-02  6.870296008309E-02  6.350350351544E-02
  5.864654348697E-02  5.411389150016E-02  4.988797132489E-02  4.595182591163E-02
  4.228912164452E-02  3.888415013306E-02  3.572182772789E-02  3.278769293300E-02
  3.006790187545E-02  2.754922198327E-02  2.521902401364E-02  2.306527256643E-02
  2.107651521279E-02  1.924187036433E-02  1.755101400543E-02  1.599416540942E-02
  1.456207195746E-02  1.324599317825E-02  1.203768412476E-02  1.092937820334E-02
  9.913769567788E-03  8.983995188994E-03  8.133616706648E-03  7.356602165889E-03
  6.647307736435E-03  6.000459506215E-03  5.411135435136E-03  4.874747547768E-03
  4.387024436434E-03  3.943994138635E-03  3.541967444985E-03  3.177521686064E-03
  2.847485038917E-03  2.548921386405E-03  2.279115755417E-03  2.035560353084E-03
  1.815941213725E-03  1.618125463325E-03  1.440149202943E-03  1.280206007596E-03
  1.136636032913E-03  1.007915718153E-03  8.926480710395E-04  7.895535173392E-04
  6.974612960228E-04  6.153013793382E-04  5.420968960094E-04  4.769570350966E-04
  4.190704077248E-04  3.676988438675E-04  3.221716016116E-04  2.818799667779E-04
  2.462722213798E-04  2.148489601372E-04  1.871587350724E-04  1.627940090810E-04
  1.413874002579E-04  1.226081996444E-04  1.061591459386E-04  9.177344155219E-05
  7.921199520864E-05  6.826087704420E-05  5.872897289841E-05  5.044582516432E-05
  4.325964820983E-05  3.703550698630E-05  3.165364801029E-05  2.700797244357E-05
  2.300464150909E-05  1.956080496999E-05  1.660344386818E-05  1.406831917075E-05
  1.189901840956E-05  1.004609282308E-05  8.466277920686E-06  7.121790790389E-06
  5.979697860250E-06  5.011347202638E-06  4.191859838859E-06  3.499674858841E-06
  2.916143516435E-06  2.425167794960E-06  2.012879259240E-06  1.667354319274E-06
  1.378362326205E-06  1.137143203171E-06  9.362115815516E-07  7.691846669037E-07
  6.306312983886E-07  5.159398907134E-07  4.212031586773E-07  3.431177214695E-07
  2.788968672227E-07  2.261949283196E-07  1.830418750151E-07  1.477868795505E-07
  1.190497356352E-07  9.567913951974E-08  7.671694948853E-08  6.136764107088E-08
  4.897226623610E-08  3.898630693324E-08  3.096088718181E-08  2.452687413367E-08
  1.938145770593E-08  1.527685111004E-08  1.201080142829E-08  9.418640845130E-09
  7.366645727347E-09  5.746502934917E-09  4.470710974652E-09  3.468768289614E-09
  2.684022488677E-09  2.071073010612E-09  1.593635905189E-09  1.222793391078E-09
  9.355628809596E-10  7.137304868078E-10  5.429028474005E-10  4.117386479878E-10
  3.113276000498E-10  2.346900695024E-10  1.763751191771E-10  1.321385845723E-10
  9.868603482278E-11  7.346817455406E-11  5.451849599437E-11  4.032486308281E-11
  2.972825969723E-11  2.184321357755E-11  1.599545981893E-11  1.167327032752E-11
  8.489580164827E-12  6.152615194040E-12  4.443190624018E-12  3.197226042981E-12
  2.292325359794E-12  1.637513086053E-12  1.165412701053E-12  8.263076351068E-13
  5.836482630912E-13  4.106654431910E-13  2.878276562554E-13  2.009388463168E-13
  1.397209975777E-13  9.676202665455E-14  6.673790924269E-14  4.583985120623E-14
  3.135415485435E-14  2.135533395161E-14  1.448287584147E-14  9.779529307703E-15
  6.574656398244E-15  4.400450156057E-15  2.932019181660E-15  1.944726673774E-15
  1.283951225475E-15  8.437475176235E-16  5.518563620377E-16  3.592232135074E-16
  2.327032472329E-16  1.500081279283E-16  9.622228742915E-17  6.141280964193E-17
  3.899762062011E-17  2.463690060910E-17  1.548371707411E-17  9.680040767401E-18
  6.019530295623E-18  3.723063080998E-18  0.000000000000E+00  0.000000000000E+00
  0.000000000000E+00  0.000000000000E+00  0.000000000000E+00  0.000000000000E+00
  0.000000000000E+00  0.000000000000E+00  0.000000000000E+00  0.000000000000E+00
  0.000000000000E+00  0.000000000000E+00  0.000000000000E+00  0.000000000000E+00
  0.000000000000E+00  0.000000000000E+00  0.000000000000E+00  0.000000000000E+00
  0.000000000000E+00  0.000000000000E+00  0.000000000000E+00  0.000000000000E+00
  0.000000000000E+00  0.000000000000E+00  0.000000000000E+00  0.000000000000E+00
  0.000000000000E+00  0.000000000000E+00  0.000000000000E+00  0.000000000000E+00
  0.000000000000E+00  0.000000000000E+00  0.000000000000E+00  0.000000000000E+00
  0.000000000000E+00  0.000000000000E+00  0.000000000000E+00  0.000000000000E+00
  0.000000000000E+00  0.000000000000E+00  0.000000000000E+00  0.000000000000E+00
  0.000000000000E+00  0.000000000000E+00  0.000000000000E+00  0.000000000000E+00
  0.000000000000E+00
</data>
</radfunc>
</valence-charge>
<pseudocore-charge matching-radius="1.13675477867"
 number-of-continuous-derivatives="4">
<annotation model-charge-form="Teter function with specified parameters" />
<radfunc>
<data npts="290">
  1.867702171151E+01  1.867622474984E+01  1.867384226923E+01  1.866986715850E+01
  1.866433973630E+01  1.865707059638E+01  1.864780424347E+01  1.863719080664E+01
  1.862525373138E+01  1.861132865512E+01  1.859562681327E+01  1.857855288678E+01
  1.855790817871E+01  1.853633533042E+01  1.851087179842E+01  1.848542545125E+01
  1.845610375359E+01  1.842829056364E+01  1.839700069395E+01  1.836180625781E+01
  1.832222850996E+01  1.828705274636E+01  1.824842787633E+01  1.820602373703E+01
  1.815948024789E+01  1.810840505780E+01  1.805237108606E+01  1.800681354001E+01
  1.795799578581E+01  1.790569405875E+01  1.784967070323E+01  1.778967354105E+01
  1.772543524980E+01  1.765667276003E+01  1.758308668134E+01  1.750436076926E+01
  1.742016144711E+01  1.733013739902E+01  1.726670375231E+01  1.720040360152E+01
  1.713111937668E+01  1.705872988664E+01  1.698311033548E+01  1.690413235622E+01
  1.682166406393E+01  1.673557013058E+01  1.664571188387E+01  1.655194743295E+01
  1.645413182358E+01  1.635211722583E+01  1.624575315760E+01  1.613488674724E+01
  1.601936303888E+01  1.589902534438E+01  1.577371564570E+01  1.564327505195E+01
  1.550754431539E+01  1.536636441079E+01  1.521957718276E+01  1.506702606558E+01
  1.490855688017E+01  1.474401871296E+01  1.457326488091E+01  1.439615398727E+01
  1.421255107204E+01  1.402232886083E+01  1.382536911548E+01  1.372432854478E+01
  1.362156408890E+01  1.351706417479E+01  1.341081808605E+01  1.330281601758E+01
  1.319304913187E+01  1.308150961694E+01  1.296819074592E+01  1.285308693818E+01
  1.273619382206E+01  1.261750829911E+01  1.249702860977E+01  1.237475440049E+01
  1.225068679214E+01  1.212482844968E+01  1.199718365301E+01  1.186775836885E+01
  1.173656032356E+01  1.160359907678E+01  1.146888609573E+01  1.133243483000E+01
  1.119426078675E+01  1.105438160595E+01  1.091281713569E+01  1.076958950713E+01
  1.062472320896E+01  1.047824516117E+01  1.033018478770E+01  1.018057408778E+01
  1.002944770567E+01  9.876842998391E+00  9.722800101165E+00  9.567361990133E+00
  9.410574542010E+00  9.252486590233E+00  9.093149977183E+00  8.932619602026E+00
  8.770953463697E+00  8.608212698548E+00  8.444461612133E+00  8.279767704628E+00
  8.114201689315E+00  7.947837503611E+00  7.780752312033E+00  7.613026500554E+00
  7.444743661741E+00  7.275990570091E+00  7.106857146965E+00  6.937436414523E+00
  6.767824438072E+00  6.598120256237E+00  6.428425798385E+00  6.258845788749E+00
  6.089487636711E+00  5.920461312748E+00  5.751879209556E+00  5.583855987937E+00
  5.416508407040E+00  5.249955138643E+00  5.084316565194E+00  4.919714561404E+00
  4.756272259281E+00  4.594113796540E+00  4.433364048463E+00  4.274148343340E+00
  4.116592161772E+00  3.960820820212E+00  3.806959139241E+00  3.655131097242E+00
  3.505459470252E+00  3.358065458919E+00  3.213068303685E+00  3.070584889419E+00
  2.930729340966E+00  2.793612611177E+00  2.659342063212E+00  2.528021049073E+00
  2.399748486464E+00  2.274618436319E+00  2.152719683426E+00  2.034135322808E+00
  1.918942354623E+00  1.807211290531E+00  1.699005774556E+00  1.594382221624E+00
  1.493389477016E+00  1.396068500065E+00  1.302452075430E+00  1.212564555336E+00
  1.126421636092E+00  1.044030172175E+00  9.653880310546E-01  8.904839917722E-01
  8.192976901352E-01  7.517996131129E-01  6.879511447649E-01  6.277046656848E-01
  5.710037075648E-01  5.177831640500E-01  4.679695585758E-01  4.214813693442E-01
  3.782294110425E-01  3.381172722776E-01  3.010418070741E-01  2.668936781082E-01
  2.355579486622E-01  2.069147195882E-01  1.808398068715E-01  1.572054546989E-01
  1.358810782747E-01  1.167340300016E-01  9.963038207104E-02  8.443571799635E-02
  7.101592519344E-02  5.923798037749E-02  4.897071931602E-02  4.008558237078E-02
  3.245732728594E-02  2.596470084699E-02  2.049106135154E-02  1.592494430532E-02
  1.216056438536E-02  9.098247496583E-03  6.644787681981E-03  4.713724720582E-03
  3.225539447665E-03  2.107765139324E-03  1.295014695730E-03  7.289248071609E-04
  3.580197627997E-04  1.374990303752E-04  2.895415777442E-05  2.188737700461E-08
  2.398159081876E-05  7.930618776933E-05  1.491765706995E-04  2.209701856612E-04
  2.857347889777E-04  3.376584901291E-04  3.735469886093E-04  3.923184128572E-04
  3.945253783319E-04  3.819128160226E-04  3.570188097075E-04  3.228241584922E-04
  2.824546989503E-04  2.389386356936E-04  1.950193044622E-04  1.530219963743E-04
  1.147717760340E-04  8.155769843373E-05  5.413753368784E-05  3.277609979411E-05
  1.730962519770E-05  7.228243424199E-06  1.768772716474E-06  1.034684994609E-08
  9.662120768491E-07  3.666043550009E-06  7.224399638069E-06  1.089234732588E-05
  1.409076972897E-05  1.642531648222E-05  1.768428967783E-05  1.782189010529E-05
  1.693011256278E-05  1.520312598510E-05  1.289817862582E-05  1.029693128254E-05
  7.670670129253E-06  5.252137881705E-06  3.215821802337E-06  1.667538678578E-06
  6.431569984191E-07  1.153901841603E-07  6.866270316384E-09  2.071938555622E-07
  5.915402924111E-07  1.038323972160E-06  1.443974348243E-06  1.733277561578E-06
  1.864525060764E-06  1.829425672258E-06  1.648432943711E-06  1.362692654511E-06
  1.024163581762E-06  6.855704850850E-07  3.917089127201E-07  1.732690791310E-07
  4.384360695004E-08  2.155733642253E-10  0.000000000000E+00  0.000000000000E+00
  0.000000000000E+00  0.000000000000E+00  0.000000000000E+00  0.000000000000E+00
  0.000000000000E+00  0.000000000000E+00  0.000000000000E+00  0.000000000000E+00
  0.000000000000E+00  0.000000000000E+00  0.000000000000E+00  0.000000000000E+00
  0.000000000000E+00  0.000000000000E+00  0.000000000000E+00  0.000000000000E+00
  0.000000000000E+00  0.000000000000E+00  0.000000000000E+00  0.000000000000E+00
  0.000000000000E+00  0.000000000000E+00  0.000000000000E+00  0.000000000000E+00
  0.000000000000E+00  0.000000000000E+00  0.000000000000E+00  0.000000000000E+00
  0.000000000000E+00  0.000000000000E+00
</data>
</radfunc>
</pseudocore-charge>
<semilocal-potentials set="scalar_relativistic">
<slps n="4" l="s" rc="1.81011753795" eref="-0.739905793628">
<radfunc>
<data npts="290">
  6.082880586959E+01  6.078811331826E+01  6.066673354234E+01  6.046510847154E+01
  6.018659033329E+01  5.982353628554E+01  5.936596714066E+01  5.884895556513E+01
  5.827630063374E+01  5.761980885540E+01  5.689404247188E+01  5.612175723481E+01
  5.521066994859E+01  5.428418720052E+01  5.322281381470E+01  5.219543707154E+01
  5.105085549882E+01  5.000210568429E+01  4.886304441324E+01  4.763066872759E+01
  4.630290300070E+01  4.517133262416E+01  4.397820644861E+01  4.272425598640E+01
  4.141087602682E+01  4.004016936408E+01  3.861497841213E+01  3.751246564977E+01
  3.638310992034E+01  3.522894104393E+01  3.405221363961E+01  3.285539444666E+01
  3.164114575864E+01  3.041230511256E+01  2.917186149028E+01  2.792292840222E+01
  2.666871432741E+01  2.541249107489E+01  2.457552311768E+01  2.374010875096E+01
  2.290722169362E+01  2.207782604251E+01  2.125287191431E+01  2.043329120781E+01
  1.961999352448E+01  1.881386228297E+01  1.801575106009E+01  1.722648018707E+01
  1.644683362651E+01  1.567755615090E+01  1.491935083981E+01  1.417287690838E+01
  1.343874787552E+01  1.271753007642E+01  1.200974151983E+01  1.131585108743E+01
  1.063627806915E+01  9.971392025769E+00  9.321512967727E+00  8.686911837347E+00
  8.067811280312E+00  7.464386691352E+00  6.876767518723E+00  6.305038812028E+00
  5.749242998316E+00  5.209381872031E+00  4.685418785315E+00  4.429377624354E+00
  4.177281026155E+00  3.929114685834E+00  3.684862372978E+00  3.444506020403E+00
  3.208025815287E+00  2.975400292600E+00  2.746606430781E+00  2.521619749566E+00
  2.300414409922E+00  2.082963315990E+00  1.869238218982E+00  1.659209822920E+00
  1.452847892148E+00  1.250121360496E+00  1.050998441999E+00  8.554467430222E-01
  6.634333756605E-01  4.749250722517E-01  2.898883008054E-01  1.082893811522E-01
 -6.990539842759E-02 -2.447296643552E-01 -4.162168409788E-01 -5.844000342012E-01
 -7.493119158728E-01 -9.109846093493E-01 -1.069449576660E+00 -1.224737507772E+00
 -1.376878212469E+00 -1.525900515440E+00 -1.671832155175E+00 -1.814699687355E+00
 -1.954528393442E+00 -2.091342195227E+00 -2.225163576157E+00 -2.356013510267E+00
 -2.483911399619E+00 -2.608875021161E+00 -2.730920483964E+00 -2.850062197788E+00
 -2.966312853984E+00 -3.079683419692E+00 -3.190183146333E+00 -3.297819593334E+00
 -3.402598667998E+00 -3.504524682389E+00 -3.603600427994E+00 -3.699827268857E+00
 -3.793205253738E+00 -3.883733247694E+00 -3.971409083338E+00 -4.056229731763E+00
 -4.138191492934E+00 -4.217290205047E+00 -4.293521472037E+00 -4.366880908100E+00
 -4.437364397687E+00 -4.504968369018E+00 -4.569690078740E+00 -4.631527904840E+00
 -4.690481644441E+00 -4.746552812604E+00 -4.799744937695E+00 -4.850063848355E+00
 -4.897517946606E+00 -4.942118461096E+00 -4.983879674039E+00 -5.022819115019E+00
 -5.058957714490E+00 -5.092319909600E+00 -5.122933694898E+00 -5.150830610542E+00
 -5.176045660940E+00 -5.198617157214E+00 -5.218586477673E+00 -5.235997741505E+00
 -5.250897392273E+00 -5.263333689506E+00 -5.273356108772E+00 -5.281014653054E+00
 -5.286359081115E+00 -5.289438061791E+00 -5.290298266714E+00 -5.288983417951E+00
 -5.285533311254E+00 -5.279982840051E+00 -5.272361049924E+00 -5.262690257836E+00
 -5.250985274862E+00 -5.237252775244E+00 -5.221490858172E+00 -5.203688851445E+00