<?xml version="1.0" encoding="UTF-8" ?>
<psml version="1.1" energy_unit="hartree" length_unit="bohr"
 uuid="710d9ca0-1d65-11e8-7b07-6767ee3f70ad"
 xmlns="http://esl.cecam.org/PSML/ns/1.1">
<provenance creator="ONCVPSP-3.3.0+psml-3.3.0-73 (scalar-relativistic)"
 date="2018-03-01">
<annotation action="semilocal-pseudopotential-generation"
 action-cont="projectors-generation" />
<input-file name="oncvpsp-input">
<![CDATA[# atsym z nc nv iexc psfile
Cu 29 3 4 -116133 upf
# n l f
1 0 2.0
2 0 2.0
2 1 6.0
3 0 2.0
3 1 6.0
3 2 10.0
4 0 1.0
# lmax
2
# l rc ep ncon nbas qcut
0 1.2 0.0 4 8 9.6
1 1.3 0.0 4 8 10.0
2 1.6 0.0 4 7 10.0
# lloc lpopt rc5 dvloc0
4 5 1.2 0.0
# l nproj debl
0 2 1.5
1 2 1.5
2 2 2.0
# icmod fcfact
3 5 1.45
# epsh1 epsh2 depsh
-12.0 12.0 0.02
# rlmax drl
6.0 0.01
 0
]]>
</input-file>
</provenance>
<pseudo-atom-spec atomic-label="Cu" atomic-number="29" z-pseudo="19"
 flavor="Hamann&apos;s oncvpsp" relativity="scalar" spin-dft="no"
 core-corrections="yes">
<annotation pseudo-energy="-188.296165358" />
<exchange-correlation>
<annotation oncvpsp-xc-code="-116133" oncvpsp-xc-type="libxc-interface" />
<libxc-info number-of-functionals="2">
<functional name="Perdew, Burke &amp; Ernzerhof SOL (GGA)" type="exchange"
 id="116" />
<functional name="Perdew, Burke &amp; Ernzerhof SOL (GGA)" type="correlation"
 id="133" />
</libxc-info>
</exchange-correlation>
<valence-configuration total-valence-charge="19">
<shell n="3" l="s" occupation="2" />
<shell n="3" l="p" occupation="6" />
<shell n="3" l="d" occupation="10" />
<shell n="4" l="s" occupation="1" />
</valence-configuration>
</pseudo-atom-spec>
<grid npts="457">
<annotation type="sampled from oncvpsp log grid"
 recipe="r(i:1..N) = r1*exp(a*(i-1)) + r=0; resampled"
 recipe-cont="r1: scale; a: step" scale="0.172413793103E-04"
 step="0.119285708653E-01" delta="0.500000000000E-02" rmax="44.1434196577" />
<grid-data>
  0.000000000000E+00  5.040759278960E-03  1.006852107514E-02  1.510438714353E-02
  2.011108069843E-02  2.522697322451E-02  3.053186590510E-02  3.565332260536E-02
  4.114017728858E-02  4.635229949226E-02  5.160548885826E-02  5.677275850950E-02
  6.245742807768E-02  6.789654638074E-02  7.293412198510E-02  7.834545986930E-02
  8.415829127808E-02  8.933043969595E-02  9.482045482488E-02  1.006478719214E-01
  1.068334268276E-01  1.120544760441E-01  1.175306828056E-01  1.232745168994E-01
  1.292990575229E-01  1.356180230659E-01  1.422458023490E-01  1.474283472209E-01
  1.527997115230E-01  1.583667746511E-01  1.641366666430E-01  1.701167773103E-01
  1.763147657031E-01  1.827385699191E-01  1.893964172706E-01  1.962968348216E-01
  2.034486603088E-01  2.108610534604E-01  2.159520827352E-01  2.211660298207E-01
  2.265058624447E-01  2.319746199876E-01  2.375754152126E-01  2.433114360375E-01
  2.491859473491E-01  2.552022928619E-01  2.613638970208E-01  2.676742669505E-01
  2.741369944517E-01  2.807557580458E-01  2.875343250680E-01  2.944765538125E-01
  3.015863957277E-01  3.088678976662E-01  3.163252041874E-01  3.239625599173E-01
  3.317843119640E-01  3.397949123920E-01  3.479989207568E-01  3.564010066996E-01
  3.650059526053E-01  3.738186563250E-01  3.828441339633E-01  3.920875227337E-01
  4.015540838826E-01  4.112492056839E-01  4.211784065059E-01  4.262325473840E-01
  4.313473379526E-01  4.365235060080E-01  4.417617880801E-01  4.470629295371E-01
  4.524276846915E-01  4.578568169078E-01  4.633510987107E-01  4.689113118952E-01
  4.745382476380E-01  4.802327066096E-01  4.859954990890E-01  4.918274450780E-01
  4.977293744190E-01  5.037021269120E-01  5.097465524349E-01  5.158635110642E-01
  5.220538731969E-01  5.283185196753E-01  5.346583419114E-01  5.410742420143E-01
  5.475671329185E-01  5.541379385135E-01  5.607875937757E-01  5.675170449010E-01
  5.743272494398E-01  5.812191764331E-01  5.881938065503E-01  5.952521322289E-01
  6.023951578156E-01  6.096238997094E-01  6.169393865059E-01  6.243426591440E-01
  6.318347710537E-01  6.394167883064E-01  6.470897897661E-01  6.548548672432E-01
  6.627131256502E-01  6.706656831580E-01  6.787136713559E-01  6.868582354121E-01
  6.951005342371E-01  7.034417406479E-01  7.118830415357E-01  7.204256380341E-01
  7.290707456905E-01  7.378195946388E-01  7.466734297745E-01  7.556335109318E-01
  7.647011130630E-01  7.738775264197E-01  7.831640567368E-01  7.925620254176E-01
  8.020727697226E-01  8.116976429593E-01  8.214380146748E-01  8.312952708509E-01
  8.412708141011E-01  8.513660638703E-01  8.615824566368E-01  8.719214461164E-01
  8.823845034698E-01  8.929731175114E-01  9.036887949216E-01  9.145330604606E-01
  9.255074571862E-01  9.366135466724E-01  9.478529092325E-01  9.592271441432E-01
  9.707378698730E-01  9.823867243114E-01  9.941753650032E-01  1.006105469383E+00
  1.018178735016E+00  1.030396879836E+00  1.042761642394E+00  1.055274782103E+00
  1.067938079488E+00  1.080753336442E+00  1.093722376479E+00  1.106847044997E+00
  1.120129209537E+00  1.133570760051E+00  1.147173609172E+00  1.160939692482E+00
  1.174870968792E+00  1.188969420417E+00  1.203237053462E+00  1.217675898104E+00
  1.232288008881E+00  1.247075464988E+00  1.262040370567E+00  1.277184855014E+00
  1.292511073274E+00  1.308021206154E+00  1.323717460628E+00  1.339602070155E+00
  1.355677294997E+00  1.371945422537E+00  1.388408767607E+00  1.405069672819E+00
  1.421930508893E+00  1.438993674999E+00  1.456261599099E+00  1.473736738288E+00
  1.491421579148E+00  1.509318638098E+00  1.527430461755E+00  1.545759627296E+00
  1.564308742823E+00  1.583080447737E+00  1.602077413110E+00  1.621302342067E+00
  1.640757970172E+00  1.660447065814E+00  1.680372430604E+00  1.700536899771E+00
  1.720943342569E+00  1.741594662679E+00  1.762493798632E+00  1.783643724215E+00
  1.805047448906E+00  1.826708018293E+00  1.848628514512E+00  1.870812056686E+00
  1.893261801367E+00  1.915980942983E+00  1.938972714299E+00  1.962240386870E+00
  1.985787271513E+00  2.009616718771E+00  2.033732119396E+00  2.058136904829E+00
  2.082834547687E+00  2.107828562259E+00  2.133122505006E+00  2.158719975066E+00
  2.184624614767E+00  2.210840110144E+00  2.237370191466E+00  2.264218633764E+00
  2.291389257369E+00  2.318885928457E+00  2.346712559599E+00  2.374873110314E+00
  2.403371587638E+00  2.432212046689E+00  2.461398591250E+00  2.490935374345E+00
  2.520826598837E+00  2.551076518023E+00  2.581689436239E+00  2.612669709474E+00
  2.644021745988E+00  2.675750006939E+00  2.707859007023E+00  2.740353315107E+00
  2.773237554888E+00  2.806516405547E+00  2.840194602413E+00  2.874276937642E+00
  2.908768260894E+00  2.943673480025E+00  2.978997561785E+00  3.014745532527E+00
  3.050922478917E+00  3.087533548664E+00  3.124583951248E+00  3.162078958663E+00
  3.200023906167E+00  3.238424193041E+00  3.277285283357E+00  3.316612706758E+00
  3.356412059239E+00  3.396689003950E+00  3.437449271997E+00  3.478698663261E+00
  3.520443047220E+00  3.562688363787E+00  3.605440624152E+00  3.648705911642E+00
  3.692490382582E+00  3.736800267173E+00  3.781641870379E+00  3.827021572823E+00
  3.872945831697E+00  3.919421181678E+00  3.966454235858E+00  4.014051686688E+00
  4.062220306928E+00  4.110966950611E+00  4.160298554019E+00  4.210222136667E+00
  4.260744802307E+00  4.311873739935E+00  4.363616224814E+00  4.415979619512E+00
  4.468971374946E+00  4.522599031445E+00  4.576870219822E+00  4.631792662460E+00
  4.687374174410E+00  4.743622664503E+00  4.800546136477E+00  4.858152690114E+00
  4.916450522396E+00  4.975447928665E+00  5.035153303809E+00  5.095575143454E+00
  5.156722045176E+00  5.218602709718E+00  5.281225942234E+00  5.344600653541E+00
  5.408735861384E+00  5.473640691720E+00  5.539324380021E+00  5.605796272581E+00
  5.673065827852E+00  5.741142617786E+00  5.810036329200E+00  5.879756765150E+00
  5.950313846332E+00  6.021717612488E+00  6.093978223838E+00  6.167105962524E+00
  6.241111234074E+00  6.316004568883E+00  6.391796623710E+00  6.468498183194E+00
  6.546120161393E+00  6.624673603329E+00  6.704169686569E+00  6.784619722808E+00
  6.866035159482E+00  6.948427581396E+00  7.031808712372E+00  7.116190416921E+00
  7.201584701924E+00  7.288003718347E+00  7.375459762967E+00  7.463965280123E+00
  7.553532863484E+00  7.644175257846E+00  7.735905360940E+00  7.828736225271E+00
  7.922681059975E+00  8.017753232694E+00  8.113966271487E+00  8.211333866745E+00
  8.309869873145E+00  8.409588311623E+00  8.510503371363E+00  8.612629411819E+00
  8.715980964761E+00  8.820572736338E+00  8.926419609174E+00  9.033536644484E+00
  9.141939084218E+00  9.251642353229E+00  9.362662061467E+00  9.475014006205E+00
  9.588714174279E+00  9.703778744371E+00  9.820224089303E+00  9.938066778375E+00
  1.005732357972E+01  1.017801146267E+01  1.030014760022E+01  1.042374937143E+01
  1.054883436388E+01  1.067542037625E+01  1.080352542077E+01  1.093316772581E+01
  1.106436573852E+01  1.119713812739E+01  1.133150378492E+01  1.146748183033E+01
  1.160509161230E+01  1.174435271165E+01  1.188528494419E+01  1.202790836352E+01
  1.217224326388E+01  1.231831018304E+01  1.246612990524E+01  1.261572346410E+01
  1.276711214567E+01  1.292031749142E+01  1.307536130132E+01  1.323226563693E+01
  1.339105282458E+01  1.355174545847E+01  1.371436640397E+01  1.387893880082E+01
  1.404548606643E+01  1.421403189923E+01  1.438460028202E+01  1.455721548540E+01
  1.473190207123E+01  1.490868489608E+01  1.508758911484E+01  1.526864018421E+01
  1.545186386642E+01  1.563728623282E+01  1.582493366762E+01  1.601483287163E+01
  1.620701086609E+01  1.640149499648E+01  1.659831293644E+01  1.679749269167E+01
  1.699906260397E+01  1.720305135522E+01  1.740948797149E+01  1.761840182714E+01
  1.782982264907E+01  1.804378052086E+01  1.826030588711E+01  1.847942955775E+01
  1.870118271245E+01  1.892559690500E+01  1.915270406786E+01  1.938253651667E+01
  1.961512695487E+01  1.985050847833E+01  2.008871458007E+01  2.032977915503E+01
  2.057373650489E+01  2.082062134295E+01  2.107046879906E+01  2.132331442465E+01
  2.157919419775E+01  2.183814452812E+01  2.210020226246E+01  2.236540468961E+01
  2.263378954588E+01  2.290539502043E+01  2.318025976068E+01  2.345842287781E+01
  2.373992395234E+01  2.402480303977E+01  2.431310067625E+01  2.460485788436E+01
  2.490011617897E+01  2.519891757312E+01  2.550130458400E+01  2.580732023901E+01
  2.611700808187E+01  2.643041217886E+01  2.674757712500E+01  2.706854805050E+01
  2.739337062711E+01  2.772209107463E+01  2.805475616753E+01  2.839141324154E+01
  2.873211020044E+01  2.907689552284E+01  2.942581826912E+01  2.977892808835E+01
  3.013627522541E+01  3.049791052811E+01  3.086388545445E+01  3.123425207990E+01
  3.160906310486E+01  3.198837186212E+01  3.237223232447E+01  3.276069911236E+01
  3.315382750171E+01  3.355167343173E+01  3.395429351291E+01  3.436174503506E+01
  3.477408597549E+01  3.519137500719E+01  3.561367150728E+01  3.604103556537E+01
  3.647352799215E+01  3.691121032806E+01  3.735414485199E+01  3.780239459022E+01
  3.825602332530E+01  3.871509560520E+01  3.917967675246E+01  3.964983287349E+01
  4.012563086798E+01  4.060713843839E+01  4.109442409965E+01  4.158755718885E+01
  4.208660787511E+01  4.259164716962E+01  4.310274693565E+01  4.361997989888E+01
  4.414341965767E+01
</grid-data>
</grid>
<valence-charge total-charge="19" is-unscreening-charge="yes"
 rescaled-to-z-pseudo="no">
<radfunc>
<data npts="457">
  1.806447704690E+01  1.807475757869E+01  1.810548426955E+01  1.815672956608E+01
  1.822794199316E+01  1.832151484812E+01  1.844066688135E+01  1.857696101375E+01
  1.874601482009E+01  1.892851728845E+01  1.913388537841E+01  1.935669218120E+01
  1.962538881664E+01  1.990533627514E+01  2.018430121301E+01  2.050476390271E+01
  2.087263717241E+01  2.122020025807E+01  2.160959249755E+01  2.204552279583E+01
  2.253313916534E+01  2.296419477765E+01  2.343498442072E+01  2.394877309360E+01
  2.450900539149E+01  2.511929355684E+01  2.578339844920E+01  2.631912584178E+01
  2.688897680776E+01  2.749463559718E+01  2.813778600633E+01  2.882009344759E+01
  2.954318332818E+01  3.030861520946E+01  3.111785216973E+01  3.197222474679E+01
  3.287288879554E+01  3.382077656346E+01  3.447927264111E+01  3.515916505150E+01
  3.586048747373E+01  3.658318590877E+01  3.732710753879E+01  3.809198870748E+01
  3.887744200076E+01  3.968294241673E+01  4.050781262544E+01  4.135120733339E+01
  4.221209678544E+01  4.308924945793E+01  4.398121402207E+01  4.488630068621E+01
  4.580256206002E+01  4.672777372347E+01  4.765941472827E+01  4.859464831108E+01
  4.953030315401E+01  5.046285559143E+01  5.138841323001E+01  5.230270052295E+01
  5.320104691696E+01  5.407837827119E+01  5.492921232965E+01  5.574765910869E+01
  5.652742713793E+01  5.726183656067E+01  5.794384015529E+01  5.826289424876E+01
  5.856605337534E+01  5.885234834672E+01  5.912079451816E+01  5.937039367369E+01
  5.960013611054E+01  5.980900292962E+01  5.999596853850E+01  6.016000337233E+01
  6.030007683732E+01  6.041516048043E+01  6.050423138741E+01  6.056627581031E+01
  6.060029302367E+01  6.060529940712E+01  6.058033275014E+01  6.052445677249E+01
  6.043676585180E+01  6.031638994705E+01  6.016249970436E+01  5.997431172831E+01
  5.975109399943E+01  5.949217141500E+01  5.919693142740E+01  5.886482975053E+01
  5.849539610162E+01  5.808823994229E+01  5.764305617881E+01  5.715963077863E+01
  5.663784625623E+01  5.607768697858E+01  5.547924423705E+01  5.484272102987E+01
  5.416843649700E+01  5.345682994662E+01  5.270846441139E+01  5.192402967120E+01
  5.110434467880E+01  5.025035932508E+01  4.936315548177E+01  4.844394726145E+01
  4.749408043768E+01  4.651503097212E+01  4.550840260061E+01  4.447592343654E+01
  4.341944155717E+01  4.234091954737E+01  4.124242798499E+01  4.012613786321E+01
  3.899431195708E+01  3.784929515496E+01  3.669350378932E+01  3.552941401603E+01
  3.435954930702E+01  3.318646713628E+01  3.201274495520E+01  3.084096556865E+01
  2.967370203805E+01  2.851350225171E+01  2.736287331561E+01  2.622426592873E+01
  2.510005891634E+01  2.399254410129E+01  2.290391169748E+01  2.183623641063E+01
  2.079146442905E+01  1.977140148169E+01  1.877770213080E+01  1.781186045379E+01
  1.687520225191E+01  1.596887890321E+01  1.509386295375E+01  1.425094551466E+01
  1.344073550391E+01  1.266366074143E+01  1.191997087431E+01  1.120974207698E+01
  1.053288344006E+01  9.889144930853E+00  9.278126780887E+00  8.699290130525E+00
  8.151968739271E+00  7.635381553443E+00  7.148645910688E+00  6.690791154128E+00
  6.260772427736E+00  5.857484429194E+00  5.479774906638E+00  5.126458014232E+00
  4.796328198776E+00  4.488173742531E+00  4.200786605646E+00  3.932971324204E+00
  3.683552797618E+00  3.451383007504E+00  3.235346237918E+00  3.034361755269E+00
  2.847385237751E+00  2.673413299871E+00  2.511487235385E+00  2.360696155572E+00
  2.220179510605E+00  2.089129034766E+00  1.966790152364E+00  1.852462875629E+00
  1.745502218986E+00  1.645318147026E+00  1.551375066702E+00  1.463190868573E+00
  1.380335517895E+00  1.302429194422E+00  1.229139980363E+00  1.160179180142E+00
  1.095288755347E+00  1.034224666245E+00  9.767564046143E-01  9.226663173929E-01
  8.717490652062E-01  8.238110844834E-01  7.786700553799E-01  7.361543774791E-01
  6.961026550031E-01  6.583631930420E-01  6.227935060934E-01  5.892598400098E-01
  5.576367082601E-01  5.278064432422E-01  4.996587632222E-01  4.730903553286E-01
  4.480044748956E-01  4.243105613287E-01  4.019238705536E-01  3.807651240120E-01
  3.607601740796E-01  3.418396857037E-01  3.239388339899E-01  3.069970174094E-01
  2.909575862466E-01  2.757675858665E-01  2.613775143453E-01  2.477410939800E-01
  2.348150561701E-01  2.225589391505E-01  2.109348980421E-01  1.999075266795E-01
  1.894436906767E-01  1.795123711878E-01  1.700845188304E-01  1.611329172418E-01
  1.526320557524E-01  1.445580106692E-01  1.368883346799E-01  1.296019539008E-01
  1.226790721084E-01  1.161010817141E-01  1.098504810573E-01  1.039107976119E-01
  9.826651672003E-02  9.290301548412E-02  8.780650147071E-02  8.296395589422E-02
  7.836308096984E-02  7.399225114169E-02  6.984046791016E-02  6.589731799930E-02
  6.215293462158E-02  5.859796161310E-02  5.522352022780E-02  5.202117839315E-02
  4.898292224448E-02  4.610112976744E-02  4.336854639131E-02  4.077826238711E-02
  3.832369193606E-02  3.599855374400E-02  3.379685308754E-02  3.171286518633E-02
  2.974111980481E-02  2.787638699399E-02  2.611366389125E-02  2.444816250071E-02
  2.287529839331E-02  2.139068024266E-02  1.999010015602E-02  1.866952473396E-02
  1.742508680767E-02  1.625307780397E-02  1.514994069054E-02  1.411226345591E-02
  1.313677308105E-02  1.222032996077E-02  1.135992273493E-02  1.055266349107E-02
  9.795783301424E-03  9.086628059224E-03  8.422654580537E-03  7.801426940077E-03
  7.220613011163E-03  6.677981182197E-03  6.171397224247E-03  5.698821286608E-03
  5.258304999637E-03  4.847988666547E-03  4.466098528286E-03  4.110944087996E-03
  3.780915483833E-03  3.474480901170E-03  3.190184017198E-03  2.926641472908E-03
  2.682540369103E-03  2.456635784656E-03  2.247748316549E-03  2.054761642377E-03
  1.876620106927E-03  1.712326335226E-03  1.560938874975E-03  1.421569871761E-03
  1.293382780614E-03  1.175590117658E-03  1.067451255546E-03  9.682702662853E-04
  8.773938148329E-04  7.942091065704E-04  7.181418914297E-04  6.486545270547E-04
  5.852441029748E-04  5.274406273403E-04  4.748052773379E-04  4.269287139796E-04
  3.834294615546E-04  3.439523516478E-04  3.081670312806E-04  2.757665344146E-04
  2.464659157842E-04  2.200009457928E-04  1.961268650151E-04  1.746171967020E-04
  1.552626155723E-04  1.378698711024E-04  1.222607634834E-04  1.082711704020E-04
  9.575012280851E-05  8.455892786517E-05  7.457033730713E-05  6.566775950117E-05
  5.774451354211E-05  5.070312378704E-05  4.445465328566E-05  3.891807462166E-05
  3.401967673223E-05  2.969250632072E-05  2.587584251915E-05  2.251470349403E-05
  1.955938372024E-05  1.696502067402E-05  1.469118971836E-05  1.270152597444E-05
  1.096337198750E-05  9.447449952324E-06  8.127558071411E-06  6.980284773237E-06
  5.984763251461E-06  5.122391800262E-06  4.376669625867E-06  3.732963049257E-06
  3.178309328334E-06  2.701247802624E-06  2.291679276732E-06  1.940699824472E-06
  1.640477056332E-06  1.384144204630E-06  1.165692637224E-06  9.798742331610E-07
  8.221141335415E-07  6.884322295106E-07  5.753727218956E-07  4.799410631729E-07
  3.995476342506E-07  3.319575497812E-07  2.752460261531E-07  2.277587857306E-07
  1.880770091365E-07  1.549863842515E-07  1.274498359890E-07  1.045835547101E-07
  8.563597327103E-08  6.996937310340E-08  5.704382837303E-08  4.640322413767E-08
  3.766310953058E-08  3.050017035808E-08  2.464312715051E-08  1.986488469564E-08
  1.597577746878E-08  1.281777222228E-08  1.025950437987E-08  8.192038876533E-09
  6.525258772775E-09  5.184796434947E-09  4.109432393998E-09  3.248896255858E-09
  2.562012318644E-09  2.015139932318E-09  1.580865242065E-09  1.236906403077E-09
  9.191696775638E-10  7.159330979953E-10  5.561077677227E-10  4.307662762879E-10
  3.327414412350E-10  2.562952780221E-10  1.968469467503E-10  1.507498122462E-10
  1.151092823033E-10  8.763440222989E-11  6.651730872398E-11  5.033560632458E-11
  3.797354662909E-11  2.855858316134E-11  2.141046014375E-11  1.600048642352E-11
  1.191905959170E-11  8.849851455387E-12  6.549354547945E-12  4.830729043340E-12
  3.551087854932E-12  2.601521376230E-12  1.899297866924E-12  1.381785693900E-12
  1.001733584050E-12  7.236181927952E-13  5.208275610789E-13  3.734968809752E-13
  2.668514741818E-13  1.899427252577E-13  1.346873287441E-13  9.513978628235E-14
  6.694359874196E-14  4.691883691520E-14  3.275339435714E-14  2.277275780204E-14
  1.576900400200E-14  1.087429350546E-14  7.467660344311E-15  5.106614615377E-15
  3.477159958362E-15  2.357420641245E-15  1.591284436852E-15  1.069385005876E-15
  7.154393933408E-16  4.764756963581E-16  3.158742175558E-16  2.084343134149E-16
  1.368931329936E-16  8.948021626839E-17  5.820770950342E-17  3.768053191233E-17
  2.427231349765E-17  1.555740827883E-17  9.921314993526E-18  6.294783667333E-18
  3.973244696860E-18  2.494800227442E-18  1.558206089081E-18  9.680215977872E-19
  5.981199051693E-19  3.675413538531E-19  2.246002566268E-19  1.364807317462E-19
  8.246318186103E-20  4.953893401390E-20  2.958700854323E-20  0.000000000000E+00
  0.000000000000E+00  0.000000000000E+00  0.000000000000E+00  0.000000000000E+00
  0.000000000000E+00  0.000000000000E+00  0.000000000000E+00  0.000000000000E+00
  0.000000000000E+00  0.000000000000E+00  0.000000000000E+00  0.000000000000E+00
  0.000000000000E+00  0.000000000000E+00  0.000000000000E+00  0.000000000000E+00
  0.000000000000E+00
</data>
</radfunc>
</valence-charge>
<pseudocore-charge matching-radius="0.369386024037"
 number-of-continuous-derivatives="4">
<annotation model-charge-form="Teter function with specified parameters" />
<radfunc>
<data npts="290">
  2.837078490430E+02  2.836284666817E+02  2.833912618387E+02  2.829958418678E+02
  2.824467352553E+02  2.817258901067E+02  2.808091088995E+02  2.797619626799E+02
  2.784653899147E+02  2.770684835267E+02  2.755000452241E+02  2.738025910866E+02
  2.717612823236E+02  2.696411808675E+02  2.675352858684E+02  2.651244403154E+02
  2.623678536585E+02  2.597741578447E+02  2.568806206324E+02  2.536566441419E+02
  2.500695956051E+02  2.469154229148E+02  2.434884416449E+02  2.397697452712E+02
  2.357401018899E+02  2.313801893535E+02  2.266708917361E+02  2.228984461358E+02
  2.189115498508E+02  2.147031763922E+02  2.102668835156E+02  2.055969710585E+02
  2.006886569246E+02  1.955382715110E+02  1.901434704268E+02  1.845034647712E+02
  1.786192675181E+02  1.724939536532E+02  1.682790234489E+02  1.639615148491E+02
  1.595442145140E+02  1.550304968774E+02  1.504243591881E+02  1.457304549961E+02
  1.409541254273E+02  1.361014275096E+02  1.311791587378E+02  1.261948769845E+02
  1.211569147943E+02  1.160743870303E+02  1.109571907863E+02  1.058159964370E+02
  1.006622286744E+02  9.550803637835E+01  9.036625019978E+01  8.525032679788E+01
  8.017427877806E+01  7.515258952877E+01  7.020011236041E+01  6.533195361164E+01
  6.056333971351E+01  5.590946859199E+01  5.138534624511E+01  4.700560985128E+01
  4.278433934327E+01  3.873486001094E+01  3.486953935774E+01  3.300949100630E+01
  3.119958211511E+01  2.944099839395E+01  2.773482798666E+01  2.608205567141E+01
  2.448355732127E+01  2.294009467406E+01  2.145231046184E+01  2.002072395083E+01
  1.864572694289E+01  1.732758028935E+01  1.606641096715E+01  1.486220976567E+01
  1.371482963087E+01  1.262398471024E+01  1.158925013885E+01  1.061006260257E+01
  9.685721709432E+00  8.815392194666E+00  7.998106978274E+00  7.232771086920E+00
  6.518166444022E+00  5.852957523361E+00  5.235697852363E+00  4.664837341565E+00
  4.138730406638E+00  3.655644838978E+00  3.213771370257E+00  2.811233865746E+00
  2.446100070750E+00  2.116392824375E+00  1.820101645221E+00  1.555194584753E+00
  1.319630236172E+00  1.111369779844E+00  9.283889410208E-01  7.686897317909E-01
  6.303118472780E-01  5.113435860959E-01  4.099321672574E-01  3.242933201408E-01
  2.527200308945E-01  1.935903378056E-01  1.453740796761E-01  1.066385150634E-01
  7.605274620861E-02  5.239089940368E-02  3.453403315718E-02  2.147076647977E-02
  1.229664151344E-02  6.212257118586E-03  2.520232390489E-03  6.210808502232E-04
  8.096659547153E-06  2.613730514874E-04  1.041089660506E-03  2.080219018693E-03
  3.176812647602E-03  4.186033481857E-03  5.012103468506E-03  5.600332869962E-03
  5.929390968687E-03  6.003966590246E-03  5.847951351904E-03  5.498259197262E-03
  4.999373149287E-03  4.398685014931E-03  3.742666851732E-03  3.073885317560E-03
  2.428842601552E-03  1.836601542800E-03  1.318128834207E-03  8.862698660978E-04
  5.462526514674E-04  2.966070846116E-04  1.303799911761E-04  3.652624768473E-05
  1.361616398298E-06  9.973495946609E-06  4.750087918222E-05  1.002135216904E-04
  1.563415203911E-04  2.066288849334E-04  2.446068758234E-04  2.666035093772E-04
  2.715234183479E-04  2.604461305130E-04  2.360999871161E-04  2.022729183599E-04
  1.632200666868E-04  1.231221510201E-04  8.563823655132E-05  5.358329069322E-05
  2.874589056952E-05  1.184615875089E-05  2.619900008691E-06  3.310958892343E-09
  2.384582238245E-06  7.884871532788E-06  1.463169946926E-05  2.099252747322E-05
  2.574437620287E-05  2.816571578033E-05  2.804813699851E-05  2.563604552505E-05
  2.151145846746E-05  1.644685081860E-05  1.125124722768E-05  6.633246568927E-06
  3.099805181852E-06  9.022741748593E-07  3.262388088539E-08  0.000000000000E+00
  0.000000000000E+00  0.000000000000E+00  0.000000000000E+00  0.000000000000E+00
  0.000000000000E+00  0.000000000000E+00  0.000000000000E+00  0.000000000000E+00
  0.000000000000E+00  0.000000000000E+00  0.000000000000E+00  0.000000000000E+00
  0.000000000000E+00  0.000000000000E+00  0.000000000000E+00  0.000000000000E+00
  0.000000000000E+00  0.000000000000E+00  0.000000000000E+00  0.000000000000E+00
  0.000000000000E+00  0.000000000000E+00  0.000000000000E+00  0.000000000000E+00
  0.000000000000E+00  0.000000000000E+00  0.000000000000E+00  0.000000000000E+00
  0.000000000000E+00  0.000000000000E+00  0.000000000000E+00  0.000000000000E+00
  0.000000000000E+00  0.000000000000E+00  0.000000000000E+00  0.000000000000E+00
  0.000000000000E+00  0.000000000000E+00  0.000000000000E+00  0.000000000000E+00
  0.000000000000E+00  0.000000000000E+00  0.000000000000E+00  0.000000000000E+00
  0.000000000000E+00  0.000000000000E+00  0.000000000000E+00  0.000000000000E+00
  0.000000000000E+00  0.000000000000E+00  0.000000000000E+00  0.000000000000E+00
  0.000000000000E+00  0.000000000000E+00  0.000000000000E+00  0.000000000000E+00
  0.000000000000E+00  0.000000000000E+00  0.000000000000E+00  0.000000000000E+00
  0.000000000000E+00  0.000000000000E+00  0.000000000000E+00  0.000000000000E+00
  0.000000000000E+00  0.000000000000E+00  0.000000000000E+00  0.000000000000E+00
  0.000000000000E+00  0.000000000000E+00  0.000000000000E+00  0.000000000000E+00
  0.000000000000E+00  0.000000000000E+00  0.000000000000E+00  0.000000000000E+00
  0.000000000000E+00  0.000000000000E+00  0.000000000000E+00  0.000000000000E+00
  0.000000000000E+00  0.000000000000E+00  0.000000000000E+00  0.000000000000E+00
  0.000000000000E+00  0.000000000000E+00  0.000000000000E+00  0.000000000000E+00
  0.000000000000E+00  0.000000000000E+00  0.000000000000E+00  0.000000000000E+00
  0.000000000000E+00  0.000000000000E+00  0.000000000000E+00  0.000000000000E+00
  0.000000000000E+00  0.000000000000E+00  0.000000000000E+00  0.000000000000E+00
  0.000000000000E+00  0.000000000000E+00  0.000000000000E+00  0.000000000000E+00
  0.000000000000E+00  0.000000000000E+00  0.000000000000E+00  0.000000000000E+00
  0.000000000000E+00  0.000000000000E+00
</data>
</radfunc>
</pseudocore-charge>
<semilocal-potentials set="scalar_relativistic">
<slps n="3" l="s" rc="1.20323705346" eref="-4.20429155191">
<radfunc>
<data npts="290">
 -2.823358006358E+01 -2.823389227618E+01 -2.823482421461E+01 -2.823637864996E+01
 -2.823853944854E+01 -2.824138000214E+01 -2.824499912958E+01 -2.824914173530E+01
 -2.825428411751E+01 -2.825984049265E+01 -2.826609890843E+01 -2.827289553906E+01
 -2.828110099824E+01 -2.828965994581E+01 -2.829819834124E+01 -2.830801781776E+01
 -2.831930337874E+01 -2.832997785538E+01 -2.834194946737E+01 -2.835536567478E+01
 -2.837038733644E+01 -2.838367726698E+01 -2.839820120810E+01 -2.841405932408E+01
 -2.843135608119E+01 -2.845019928455E+01 -2.847069869012E+01 -2.848722623409E+01
 -2.850479270109E+01 -2.852344201231E+01 -2.854321553730E+01 -2.856415092098E+01
 -2.858628066802E+01 -2.860963044492E+01 -2.863421705459E+01 -2.866004603249E+01
 -2.868710880700E+01 -2.871537935990E+01 -2.873487499965E+01 -2.875486667776E+01
 -2.877532838131E+01 -2.879622756341E+01 -2.881752431882E+01 -2.883917047858E+01
 -2.886110861743E+01 -2.888327096847E+01 -2.890557823920E+01 -2.892793832366E+01
 -2.895024490647E+01 -2.897237595438E+01 -2.899419209525E+01 -2.901553488386E+01
 -2.903622496057E+01 -2.905606011253E+01 -2.907481325576E+01 -2.909223036666E+01
 -2.910802840664E+01 -2.912189330273E+01 -2.913347807347E+01 -2.914240122172E+01
 -2.914824555538E+01 -2.915055764076E+01 -2.914884813538E+01 -2.914259327631E+01
 -2.913123779871E+01 -2.911419950074E+01 -2.909087552663E+01 -2.907666427131E+01
 -2.906065018594E+01 -2.904275575263E+01 -2.902290376421E+01 -2.900101758155E+01
 -2.897702135880E+01 -2.895084022478E+01 -2.892240040927E+01 -2.889162930551E+01
 -2.885845546323E+01 -2.882280851068E+01 -2.878461900923E+01 -2.874381824938E+01
 -2.870033800208E+01 -2.865411024360E+01 -2.860506687536E+01 -2.855313946147E+01
 -2.849825900597E+01 -2.844035578939E+01 -2.837935928009E+01 -2.831519813033E+01
 -2.824780026139E+01 -2.817709303638E+01 -2.810300351431E+01 -2.802545877560E+01
 -2.794438630641E+01 -2.785971442870E+01 -2.777137276215E+01 -2.767929270558E+01
 -2.758340792588E+01 -2.748365484348E+01 -2.737997310402E+01 -2.727230602586E+01
 -2.716060101271E+01 -2.704480992014E+01 -2.692488936463E+01 -2.680080096328E+01
 -2.667251149354E+01 -2.653999296371E+01 -2.640322258755E+01 -2.626218266014E+01
 -2.611686033589E+01 -2.596724731482E+01 -2.581333944733E+01 -2.565513627222E+01
 -2.549264050607E+01 -2.532585750476E+01 -2.515479471937E+01 -2.497946116938E+01
 -2.479986695583E+01 -2.461602283631E+01 -2.442793988295E+01 -2.423562924375E+01
 -2.403910202709E+01 -2.383836933001E+01 -2.363344243170E+01 -2.342433317549E+01
 -2.321105456590E+01 -2.299362160982E+01 -2.277205243545E+01 -2.254636972591E+01
 -2.231660250845E+01 -2.208278834335E+01 -2.184497595890E+01 -2.160322837994E+01
 -2.135762659687E+01 -2.110827381906E+01 -2.085530035118E+01 -2.059886912230E+01
 -2.033918188490E+01 -2.007648608407E+01 -1.981108237543E+01 -1.954333274261E+01
 -1.927366913239E+01 -1.900260248581E+01 -1.873073199884E+01 -1.845875439534E+01
 -1.818747294043E+01 -1.791780586575E+01 -1.765079382174E+01 -1.738760592157E+01
 -1.712954390058E+01 -1.687804389228E+01 -1.663467532422E+01 -1.640113648197E+01
 -1.617924626223E+01 -1.597093196357E+01 -1.577821491247E+01 -1.559495412353E+01