<?xml version="1.0" encoding="UTF-8" ?>
<psml version="1.1" energy_unit="hartree" length_unit="bohr"
 uuid="d434f860-1d5f-11e8-79bb-a33dfbad7c5c"
 xmlns="http://esl.cecam.org/PSML/ns/1.1">
<provenance creator="ONCVPSP-3.3.0+psml-3.3.0-73 (scalar-relativistic)"
 date="2018-03-01">
<annotation action="semilocal-pseudopotential-generation"
 action-cont="projectors-generation" />
<input-file name="oncvpsp-input">
<![CDATA[# atsym z nc nv iexc psfile
Cu 29 3 4 -116133 upf
# n l f
1 0 2.0
2 0 2.0
2 1 6.0
3 0 2.0
3 1 6.0
3 2 10.0
4 0 1.0
# lmax
2
# l rc ep ncon nbas qcut
0 1.25 0.0 4 8 9.0
1 1.45 0.0 4 8 9.5
2 1.75 0.0 4 7 9.5
# lloc lpopt rc5 dvloc0
4 5 1.2 0.0
# l nproj debl
0 2 1.5
1 2 1.5
2 2 2.0
# icmod fcfact rcfact
3 3.5 1.65
# epsh1 epsh2 depsh
-12.0 12.0 0.02
# rlmax drl
6.0 0.01
 0
]]>
</input-file>
</provenance>
<pseudo-atom-spec atomic-label="Cu" atomic-number="29" z-pseudo="19"
 flavor="Hamann&apos;s oncvpsp" relativity="scalar" spin-dft="no"
 core-corrections="yes">
<annotation pseudo-energy="-185.288039330" />
<exchange-correlation>
<annotation oncvpsp-xc-code="-116133" oncvpsp-xc-type="libxc-interface" />
<libxc-info number-of-functionals="2">
<functional name="Perdew, Burke &amp; Ernzerhof SOL (GGA)" type="exchange"
 id="116" />
<functional name="Perdew, Burke &amp; Ernzerhof SOL (GGA)" type="correlation"
 id="133" />
</libxc-info>
</exchange-correlation>
<valence-configuration total-valence-charge="19">
<shell n="3" l="s" occupation="2" />
<shell n="3" l="p" occupation="6" />
<shell n="3" l="d" occupation="10" />
<shell n="4" l="s" occupation="1" />
</valence-configuration>
</pseudo-atom-spec>
<grid npts="457">
<annotation type="sampled from oncvpsp log grid"
 recipe="r(i:1..N) = r1*exp(a*(i-1)) + r=0; resampled"
 recipe-cont="r1: scale; a: step" scale="0.172413793103E-04"
 step="0.119285708653E-01" delta="0.500000000000E-02" rmax="44.1434196577" />
<grid-data>
  0.000000000000E+00  5.040759278960E-03  1.006852107514E-02  1.510438714353E-02
  2.011108069843E-02  2.522697322451E-02  3.053186590510E-02  3.565332260536E-02
  4.114017728858E-02  4.635229949226E-02  5.160548885826E-02  5.677275850950E-02
  6.245742807768E-02  6.789654638074E-02  7.293412198510E-02  7.834545986930E-02
  8.415829127808E-02  8.933043969595E-02  9.482045482488E-02  1.006478719214E-01
  1.068334268276E-01  1.120544760441E-01  1.175306828056E-01  1.232745168994E-01
  1.292990575229E-01  1.356180230659E-01  1.422458023490E-01  1.474283472209E-01
  1.527997115230E-01  1.583667746511E-01  1.641366666430E-01  1.701167773103E-01
  1.763147657031E-01  1.827385699191E-01  1.893964172706E-01  1.962968348216E-01
  2.034486603088E-01  2.108610534604E-01  2.159520827352E-01  2.211660298207E-01
  2.265058624447E-01  2.319746199876E-01  2.375754152126E-01  2.433114360375E-01
  2.491859473491E-01  2.552022928619E-01  2.613638970208E-01  2.676742669505E-01
  2.741369944517E-01  2.807557580458E-01  2.875343250680E-01  2.944765538125E-01
  3.015863957277E-01  3.088678976662E-01  3.163252041874E-01  3.239625599173E-01
  3.317843119640E-01  3.397949123920E-01  3.479989207568E-01  3.564010066996E-01
  3.650059526053E-01  3.738186563250E-01  3.828441339633E-01  3.920875227337E-01
  4.015540838826E-01  4.112492056839E-01  4.211784065059E-01  4.262325473840E-01
  4.313473379526E-01  4.365235060080E-01  4.417617880801E-01  4.470629295371E-01
  4.524276846915E-01  4.578568169078E-01  4.633510987107E-01  4.689113118952E-01
  4.745382476380E-01  4.802327066096E-01  4.859954990890E-01  4.918274450780E-01
  4.977293744190E-01  5.037021269120E-01  5.097465524349E-01  5.158635110642E-01
  5.220538731969E-01  5.283185196753E-01  5.346583419114E-01  5.410742420143E-01
  5.475671329185E-01  5.541379385135E-01  5.607875937757E-01  5.675170449010E-01
  5.743272494398E-01  5.812191764331E-01  5.881938065503E-01  5.952521322289E-01
  6.023951578156E-01  6.096238997094E-01  6.169393865059E-01  6.243426591440E-01
  6.318347710537E-01  6.394167883064E-01  6.470897897661E-01  6.548548672432E-01
  6.627131256502E-01  6.706656831580E-01  6.787136713559E-01  6.868582354121E-01
  6.951005342371E-01  7.034417406479E-01  7.118830415357E-01  7.204256380341E-01
  7.290707456905E-01  7.378195946388E-01  7.466734297745E-01  7.556335109318E-01
  7.647011130630E-01  7.738775264197E-01  7.831640567368E-01  7.925620254176E-01
  8.020727697226E-01  8.116976429593E-01  8.214380146748E-01  8.312952708509E-01
  8.412708141011E-01  8.513660638703E-01  8.615824566368E-01  8.719214461164E-01
  8.823845034698E-01  8.929731175114E-01  9.036887949216E-01  9.145330604606E-01
  9.255074571862E-01  9.366135466724E-01  9.478529092325E-01  9.592271441432E-01
  9.707378698730E-01  9.823867243114E-01  9.941753650032E-01  1.006105469383E+00
  1.018178735016E+00  1.030396879836E+00  1.042761642394E+00  1.055274782103E+00
  1.067938079488E+00  1.080753336442E+00  1.093722376479E+00  1.106847044997E+00
  1.120129209537E+00  1.133570760051E+00  1.147173609172E+00  1.160939692482E+00
  1.174870968792E+00  1.188969420417E+00  1.203237053462E+00  1.217675898104E+00
  1.232288008881E+00  1.247075464988E+00  1.262040370567E+00  1.277184855014E+00
  1.292511073274E+00  1.308021206154E+00  1.323717460628E+00  1.339602070155E+00
  1.355677294997E+00  1.371945422537E+00  1.388408767607E+00  1.405069672819E+00
  1.421930508893E+00  1.438993674999E+00  1.456261599099E+00  1.473736738288E+00
  1.491421579148E+00  1.509318638098E+00  1.527430461755E+00  1.545759627296E+00
  1.564308742823E+00  1.583080447737E+00  1.602077413110E+00  1.621302342067E+00
  1.640757970172E+00  1.660447065814E+00  1.680372430604E+00  1.700536899771E+00
  1.720943342569E+00  1.741594662679E+00  1.762493798632E+00  1.783643724215E+00
  1.805047448906E+00  1.826708018293E+00  1.848628514512E+00  1.870812056686E+00
  1.893261801367E+00  1.915980942983E+00  1.938972714299E+00  1.962240386870E+00
  1.985787271513E+00  2.009616718771E+00  2.033732119396E+00  2.058136904829E+00
  2.082834547687E+00  2.107828562259E+00  2.133122505006E+00  2.158719975066E+00
  2.184624614767E+00  2.210840110144E+00  2.237370191466E+00  2.264218633764E+00
  2.291389257369E+00  2.318885928457E+00  2.346712559599E+00  2.374873110314E+00
  2.403371587638E+00  2.432212046689E+00  2.461398591250E+00  2.490935374345E+00
  2.520826598837E+00  2.551076518023E+00  2.581689436239E+00  2.612669709474E+00
  2.644021745988E+00  2.675750006939E+00  2.707859007023E+00  2.740353315107E+00
  2.773237554888E+00  2.806516405547E+00  2.840194602413E+00  2.874276937642E+00
  2.908768260894E+00  2.943673480025E+00  2.978997561785E+00  3.014745532527E+00
  3.050922478917E+00  3.087533548664E+00  3.124583951248E+00  3.162078958663E+00
  3.200023906167E+00  3.238424193041E+00  3.277285283357E+00  3.316612706758E+00
  3.356412059239E+00  3.396689003950E+00  3.437449271997E+00  3.478698663261E+00
  3.520443047220E+00  3.562688363787E+00  3.605440624152E+00  3.648705911642E+00
  3.692490382582E+00  3.736800267173E+00  3.781641870379E+00  3.827021572823E+00
  3.872945831697E+00  3.919421181678E+00  3.966454235858E+00  4.014051686688E+00
  4.062220306928E+00  4.110966950611E+00  4.160298554019E+00  4.210222136667E+00
  4.260744802307E+00  4.311873739935E+00  4.363616224814E+00  4.415979619512E+00
  4.468971374946E+00  4.522599031445E+00  4.576870219822E+00  4.631792662460E+00
  4.687374174410E+00  4.743622664503E+00  4.800546136477E+00  4.858152690114E+00
  4.916450522396E+00  4.975447928665E+00  5.035153303809E+00  5.095575143454E+00
  5.156722045176E+00  5.218602709718E+00  5.281225942234E+00  5.344600653541E+00
  5.408735861384E+00  5.473640691720E+00  5.539324380021E+00  5.605796272581E+00
  5.673065827852E+00  5.741142617786E+00  5.810036329200E+00  5.879756765150E+00
  5.950313846332E+00  6.021717612488E+00  6.093978223838E+00  6.167105962524E+00
  6.241111234074E+00  6.316004568883E+00  6.391796623710E+00  6.468498183194E+00
  6.546120161393E+00  6.624673603329E+00  6.704169686569E+00  6.784619722808E+00
  6.866035159482E+00  6.948427581396E+00  7.031808712372E+00  7.116190416921E+00
  7.201584701924E+00  7.288003718347E+00  7.375459762967E+00  7.463965280123E+00
  7.553532863484E+00  7.644175257846E+00  7.735905360940E+00  7.828736225271E+00
  7.922681059975E+00  8.017753232694E+00  8.113966271487E+00  8.211333866745E+00
  8.309869873145E+00  8.409588311623E+00  8.510503371363E+00  8.612629411819E+00
  8.715980964761E+00  8.820572736338E+00  8.926419609174E+00  9.033536644484E+00
  9.141939084218E+00  9.251642353229E+00  9.362662061467E+00  9.475014006205E+00
  9.588714174279E+00  9.703778744371E+00  9.820224089303E+00  9.938066778375E+00
  1.005732357972E+01  1.017801146267E+01  1.030014760022E+01  1.042374937143E+01
  1.054883436388E+01  1.067542037625E+01  1.080352542077E+01  1.093316772581E+01
  1.106436573852E+01  1.119713812739E+01  1.133150378492E+01  1.146748183033E+01
  1.160509161230E+01  1.174435271165E+01  1.188528494419E+01  1.202790836352E+01
  1.217224326388E+01  1.231831018304E+01  1.246612990524E+01  1.261572346410E+01
  1.276711214567E+01  1.292031749142E+01  1.307536130132E+01  1.323226563693E+01
  1.339105282458E+01  1.355174545847E+01  1.371436640397E+01  1.387893880082E+01
  1.404548606643E+01  1.421403189923E+01  1.438460028202E+01  1.455721548540E+01
  1.473190207123E+01  1.490868489608E+01  1.508758911484E+01  1.526864018421E+01
  1.545186386642E+01  1.563728623282E+01  1.582493366762E+01  1.601483287163E+01
  1.620701086609E+01  1.640149499648E+01  1.659831293644E+01  1.679749269167E+01
  1.699906260397E+01  1.720305135522E+01  1.740948797149E+01  1.761840182714E+01
  1.782982264907E+01  1.804378052086E+01  1.826030588711E+01  1.847942955775E+01
  1.870118271245E+01  1.892559690500E+01  1.915270406786E+01  1.938253651667E+01
  1.961512695487E+01  1.985050847833E+01  2.008871458007E+01  2.032977915503E+01
  2.057373650489E+01  2.082062134295E+01  2.107046879906E+01  2.132331442465E+01
  2.157919419775E+01  2.183814452812E+01  2.210020226246E+01  2.236540468961E+01
  2.263378954588E+01  2.290539502043E+01  2.318025976068E+01  2.345842287781E+01
  2.373992395234E+01  2.402480303977E+01  2.431310067625E+01  2.460485788436E+01
  2.490011617897E+01  2.519891757312E+01  2.550130458400E+01  2.580732023901E+01
  2.611700808187E+01  2.643041217886E+01  2.674757712500E+01  2.706854805050E+01
  2.739337062711E+01  2.772209107463E+01  2.805475616753E+01  2.839141324154E+01
  2.873211020044E+01  2.907689552284E+01  2.942581826912E+01  2.977892808835E+01
  3.013627522541E+01  3.049791052811E+01  3.086388545445E+01  3.123425207990E+01
  3.160906310486E+01  3.198837186212E+01  3.237223232447E+01  3.276069911236E+01
  3.315382750171E+01  3.355167343173E+01  3.395429351291E+01  3.436174503506E+01
  3.477408597549E+01  3.519137500719E+01  3.561367150728E+01  3.604103556537E+01
  3.647352799215E+01  3.691121032806E+01  3.735414485199E+01  3.780239459022E+01
  3.825602332530E+01  3.871509560520E+01  3.917967675246E+01  3.964983287349E+01
  4.012563086798E+01  4.060713843839E+01  4.109442409965E+01  4.158755718885E+01
  4.208660787511E+01  4.259164716962E+01  4.310274693565E+01  4.361997989888E+01
  4.414341965767E+01
</grid-data>
</grid>
<valence-charge total-charge="19" is-unscreening-charge="yes"
 rescaled-to-z-pseudo="no">
<radfunc>
<data npts="457">
  2.042850208201E+01  2.043676944266E+01  2.046147858974E+01  2.050268626310E+01
  2.055994651711E+01  2.063518008708E+01  2.073096946029E+01  2.084052595490E+01
  2.097639503279E+01  2.112304760620E+01  2.128804307811E+01  2.146701207407E+01
  2.168279124060E+01  2.190754708547E+01  2.213145548785E+01  2.238860027241E+01
  2.268369529292E+01  2.296240836422E+01  2.327456247626E+01  2.362389785580E+01
  2.401449796087E+01  2.435965790557E+01  2.473649501936E+01  2.514758827061E+01
  2.559565471256E+01  2.608353955840E+01  2.661420077490E+01  2.704209995138E+01
  2.749708434193E+01  2.798047382476E+01  2.849358679491E+01  2.903772638036E+01
  2.961416392206E+01  3.022411934449E+01  3.086873801105E+01  3.154906362871E+01
  3.226600673911E+01  3.302030831326E+01  3.354420235985E+01  3.408503596742E+01
  3.464284622184E+01  3.521760463946E+01  3.580920900848E+01  3.641747460169E+01
  3.704212474486E+01  3.768278073041E+01  3.833895107330E+01  3.901002011470E+01
  3.969523598989E+01  4.039369798929E+01  4.110434335716E+01  4.182593359022E+01
  4.255704031922E+01  4.329603088081E+01  4.404105371458E+01  4.479002375124E+01
  4.554060799337E+01  4.629021152907E+01  4.703596426191E+01  4.777470868783E+01
  4.850298909975E+01  4.921704265459E+01  4.991279279306E+01  5.058584555985E+01
  5.123148942880E+01  5.184469929261E+01  5.242014532723E+01  5.269196145610E+01
  5.295220748445E+01  5.320013898642E+01  5.343499639903E+01  5.365600608291E+01
  5.386238151464E+01  5.405332461680E+01  5.422802723136E+01  5.438567274212E+01
  5.452543785137E+01  5.464649451535E+01  5.474801204289E+01  5.482915936073E+01
  5.488910744836E+01  5.492703194454E+01  5.494211592636E+01  5.493355286112E+01
  5.490054972966E+01  5.484233031883E+01  5.475813867912E+01  5.464724274192E+01
  5.450893808938E+01  5.434255186772E+01  5.414744683312E+01  5.392302551706E+01
  5.366873449591E+01  5.338406874721E+01  5.306857607264E+01  5.272186156536E+01
  5.234359209666E+01  5.193350079436E+01  5.149139148301E+01  5.101714305298E+01
  5.051071372345E+01  4.997214516150E+01  4.940156641751E+01  4.879919763475E+01
  4.816535348925E+01  4.750044631439E+01  4.680498886334E+01  4.607959666163E+01
  4.532498990163E+01  4.454199483077E+01  4.373154458604E+01  4.289467942843E+01
  4.203254633307E+01  4.114639789335E+01  4.023759050084E+01  3.930758176723E+01
  3.835792715939E+01  3.739027582493E+01  3.640636559250E+01  3.540801713860E+01
  3.439712732178E+01  3.337566169397E+01  3.234564620928E+01  3.130915816125E+01
  3.026831639067E+01  2.922527081813E+01  2.818219136710E+01  2.714125635545E+01
  2.610464044490E+01  2.507450224954E+01  2.405297171476E+01  2.304213738821E+01
  2.204403371239E+01  2.106062847578E+01  2.009381056466E+01  1.914537816077E+01
  1.821702753104E+01  1.731034255413E+01  1.642678512399E+01  1.556768656412E+01
  1.473424017597E+01  1.392749503253E+01  1.314835111274E+01  1.239755585439E+01
  1.167570218286E+01  1.098322805105E+01  1.032041750169E+01  9.687403238766E+00
  9.084170669168E+00  8.510563350499E+00  7.966289756638E+00  7.450931249446E+00
  6.963951124191E+00  6.504704578012E+00  6.072449435815E+00  5.666357456854E+00
  5.285526038153E+00  4.928990128203E+00  4.595734166081E+00  4.284704100500E+00
  3.994819941993E+00  3.724988130228E+00  3.474111228415E+00  3.241096942661E+00
  3.024866288854E+00  2.824360892501E+00  2.638549368243E+00  2.466432762639E+00
  2.307049063205E+00  2.159476797129E+00  2.022837761219E+00  1.896298597887E+00
  1.779070398478E+00  1.670407343998E+00  1.569607964043E+00  1.476015842383E+00
  1.389019905599E+00  1.308054311726E+00  1.232597983784E+00  1.162173829060E+00
  1.096347680741E+00  1.034726994253E+00  9.769593267076E-01  9.227306241524E-01
  8.717633380452E-01  8.238143893049E-01  7.786729955419E-01  7.361571626290E-01
  6.961053691731E-01  6.583658335160E-01  6.227960707260E-01  5.892623271708E-01
  5.576391167845E-01  5.278087723832E-01  4.996610126081E-01  4.730925249225E-01
  4.480065649593E-01  4.243125723887E-01  4.019258033703E-01  3.807669795512E-01
  3.607619534869E-01  3.418413902806E-01  3.239404651723E-01  3.069985767482E-01
  2.909590753895E-01  2.757690065422E-01  2.613788683489E-01  2.477423831595E-01
  2.348162824145E-01  2.225601043792E-01  2.109360041952E-01  1.999085757091E-01
  1.894446845391E-01  1.795133118367E-01  1.700854082105E-01  1.611337572834E-01
  1.526328483664E-01  1.445587577431E-01  1.368890380738E-01  1.296026154441E-01
  1.226796935968E-01  1.161016649071E-01  1.098510276765E-01  1.039113093386E-01
  9.826699519383E-02  9.290346230179E-02  8.780691818505E-02  8.296434401321E-02
  7.836344195604E-02  7.399258641180E-02  6.984077883473E-02  6.589760590259E-02
  6.215320078154E-02  5.859820726153E-02  5.522374655056E-02  5.202138653052E-02
  4.898311329156E-02  4.610130477471E-02  4.336870636518E-02  4.077840829061E-02
  3.832382468956E-02  3.599867422601E-02  3.379696213552E-02  3.171296359761E-02
  2.974120833748E-02  2.787646636787E-02  2.611373478890E-02  2.444822556846E-02
  2.287535424228E-02  2.139072944985E-02  1.999014326539E-02  1.866956225753E-02
  1.742511922663E-02  1.625310556982E-02  1.514996422618E-02  1.411228315678E-02
  1.313678931626E-02  1.222034307420E-02  1.135993304636E-02  1.055267129726E-02
  9.795788877234E-03  9.086631658660E-03  8.422656437822E-03  7.801427270686E-03
  7.220612012841E-03  6.677979035954E-03  6.171394095324E-03  5.698817325420E-03
  5.258300342689E-03  4.847983437316E-03  4.466092838078E-03  4.110938036765E-03
  3.780909160978E-03  3.474474386285E-03  3.190177380806E-03  2.926634777146E-03
  2.682533668385E-03  2.456629126297E-03  2.247741741358E-03  2.054755185217E-03
  1.876613797247E-03  1.712320197551E-03  1.560932929382E-03  1.421564134310E-03
  1.293377263760E-03  1.175584830631E-03  1.067446204705E-03  9.682654554481E-04
  8.773892455788E-04  7.942047785219E-04  7.181378025112E-04  6.486506737291E-04
  5.852404804610E-04  5.274372298114E-04  4.748020981011E-04  4.269257456396E-04
  3.834266961610E-04  3.439497808276E-04  3.081646463568E-04  2.757643265116E-04
  2.464638759215E-04  2.199990649666E-04  1.961251342706E-04  1.746156071951E-04
  1.552611586229E-04  1.378685382393E-04  1.222595464817E-04  1.082700613138E-04
  9.574911398754E-05  8.455801198518E-05  7.456950737598E-05  6.566700886996E-05
  5.774383591040E-05  5.070251320454E-05  4.445410415082E-05  3.891758167750E-05
  3.401923505995E-05  2.969211133131E-05  2.587548994342E-05  2.251438937125E-05
  1.955910438579E-05  1.696477274625E-05  1.469097008483E-05  1.270133177782E-05
  1.096320061130E-05  9.447299006521E-06  8.127425378214E-06  6.980168353123E-06
  5.984661309261E-06  5.122302712315E-06  4.376591926640E-06  3.732895418999E-06
  3.178250581445E-06  2.701196876582E-06  2.291635221336E-06  1.940661792149E-06
  1.640444292966E-06  1.384116040783E-06  1.165668479974E-06  9.798535585596E-07
  8.220964796489E-07  6.884171899882E-07  5.753599401325E-07  4.799302269185E-07
  3.995384707252E-07  3.319498212361E-07  2.752395258514E-07  2.277533343194E-07
  1.880724513827E-07  1.549825861125E-07  1.274466819929E-07  1.045809456184E-07
  8.563382399933E-08  6.996761087794E-08  5.704239109964E-08  4.640205896353E-08
  3.766217157922E-08  3.049942162000E-08  2.464253551291E-08  1.986442309615E-08
  1.597542315951E-08  1.281750613146E-08  1.025931055976E-08  8.191904027224E-09
  6.525171832633E-09  5.184748229325E-09  4.109415334791E-09  3.248904085250E-09
  2.562039891012E-09  2.015183030089E-09  1.580920375258E-09  1.236970856330E-09
  9.652721840952E-10  7.512208705773E-10  5.830415332454E-10  4.512649258028E-10
  3.482971481496E-10  2.680651017189E-10  2.057255248734E-10  1.574268503264E-10
  1.151036952927E-10  8.763009147096E-11  6.651399271963E-11  5.033306331177E-11
  3.797160243831E-11  2.855710142598E-11  2.140933442943E-11  1.599963392106E-11
  1.191841607932E-11  8.849367287832E-12  6.548991473704E-12  4.830457687346E-12
  3.550885734299E-12  2.601371341457E-12  1.899186881532E-12  1.381703882342E-12
  1.001673491508E-12  7.235742117613E-13  5.207954887226E-13  3.734735787022E-13
  2.668346067544E-13  1.899305616197E-13  1.346785905261E-13  9.513353300863E-14
  6.693914118012E-14  4.691567192318E-14  3.275115608520E-14  2.277118128926E-14
  1.576789812779E-14  1.087352097349E-14  7.467122931103E-15  5.106242343918E-15
  3.476903185696E-15  2.357244300232E-15  1.591163863613E-15  1.069302929366E-15
  7.153837729284E-16  4.764381754250E-16  3.158490225997E-16  2.084174738723E-16
  1.368819308908E-16  8.947279980311E-17  5.820282300453E-17  3.767732802645E-17
  2.427022319421E-17  1.555605131255E-17  9.920438537267E-18  6.294220462155E-18
  3.972884656122E-18  2.494571268111E-18  1.558061258754E-18  9.679304748813E-19
  5.980628842011E-19  3.675058682383E-19  2.245782956224E-19  1.364672170834E-19
  8.245491230798E-20  4.953390303013E-20  2.958396564172E-20  0.000000000000E+00
  0.000000000000E+00  0.000000000000E+00  0.000000000000E+00  0.000000000000E+00
  0.000000000000E+00  0.000000000000E+00  0.000000000000E+00  0.000000000000E+00
  0.000000000000E+00  0.000000000000E+00  0.000000000000E+00  0.000000000000E+00
  0.000000000000E+00  0.000000000000E+00  0.000000000000E+00  0.000000000000E+00
  0.000000000000E+00
</data>
</radfunc>
</valence-charge>
<pseudocore-charge matching-radius="0.373818656325"
 number-of-continuous-derivatives="4">
<annotation model-charge-form="Teter function with specified parameters" />
<radfunc>
<data npts="290">
  1.838120824639E+02  1.837732988915E+02  1.836573936233E+02  1.834641300999E+02
  1.831956482496E+02  1.828430134340E+02  1.823942269533E+02  1.818812104296E+02
  1.812453815589E+02  1.805595858119E+02  1.797886277339E+02  1.789531113431E+02
  1.779467597421E+02  1.768997160545E+02  1.758578061890E+02  1.746626921345E+02
  1.732931061781E+02  1.720014132631E+02  1.705568730780E+02  1.689429292565E+02
  1.671416418244E+02  1.655527843625E+02  1.638211680459E+02  1.619357509875E+02
  1.598850114706E+02  1.576570132146E+02  1.552394953886E+02  1.532944893360E+02
  1.512305811222E+02  1.490425117970E+02  1.467251023944E+02  1.442733150788E+02
  1.416823237099E+02  1.389475945586E+02  1.360649778411E+02  1.330308106295E+02
  1.298420315372E+02  1.264963073546E+02  1.241778685090E+02  1.217888135536E+02
  1.193291739363E+02  1.167992243276E+02  1.141995050765E+02  1.115308452515E+02
  1.087943860938E+02  1.059916046785E+02  1.031243375352E+02  1.001948039425E+02
  9.720562856113E+01  9.415986302656E+01  9.106100607004E+01  8.791302168757E+01
  8.472035482476E+01  8.148794399639E+01  7.822123021219E+01  7.492616153760E+01
  7.160919258364E+01  6.827727819248E+01  6.493786057233E+01  6.159884913619E+01
  5.826859232018E+01  5.495584070016E+01  5.166970079619E+01  4.841957905509E+01
  4.521511563704E+01  4.206610780571E+01  3.898242293511E+01  3.746815563715E+01
  3.597390140293E+01  3.450086856092E+01  3.305024993901E+01  3.162321907736E+01
  3.022092633754E+01  2.884449492203E+01  2.749501681991E+01  2.617354869614E+01
  2.488110774354E+01  2.361866751855E+01  2.238715378331E+01  2.118744037834E+01
  2.002034515172E+01  1.888662597224E+01  1.778697685522E+01  1.672202423104E+01
  1.569232338756E+01  1.469835511843E+01  1.374052260977E+01  1.281914859850E+01
  1.193447283511E+01  1.108664988396E+01  1.027574729315E+01  9.501744165313E+00
  8.764530159067E+00  8.063904949117E+00  7.399578170625E+00  6.771169870681E+00
  6.178211486457E+00  5.620147365810E+00  5.096336841865E+00  4.606056868403E+00
  4.148505217576E+00  3.722804236079E+00  3.328005149661E+00  2.963092899736E+00
  2.626991489175E+00  2.318569807628E+00  2.036647899849E+00  1.780003633637E+00
  1.547379717252E+00  1.337491009656E+00  1.149032060778E+00  9.806848133380E-01
  8.311263927616E-01  6.990369074857E-01  5.831071786454E-01  4.820463158863E-01
  3.945890549861E-01  3.195027732117E-01  2.555940999784E-01  2.017150434987E-01
  1.567685587471E-01  1.197134882562E-01  8.956881497780E-02  6.541717562691E-02
  4.640759350278E-02  3.175740158625E-02  2.075333958447E-02  1.275182229444E-02
  7.178390923343E-03  3.526373530216E-03  1.354795200989E-03  2.855925753479E-04
  2.005286488258E-07  2.355907904680E-04  7.798526746507E-04  1.467414545845E-03
  2.174010830941E-03  2.811503026693E-03  3.322664047224E-03  3.676033265092E-03
  3.860944684864E-03  3.882822906075E-03  3.758831045950E-03  3.513941872830E-03
  3.177488426273E-03  2.780233845447E-03  2.351982556052E-03  1.919737007656E-03
  1.506386482559E-03  1.129897805184E-03  8.029627433141E-04  5.330441361326E-04
  3.227528523532E-04  1.704810014391E-04  7.121367280770E-05  1.744197286895E-05
  1.041931913899E-07  9.489309100436E-06  3.604722495238E-05  7.106263067707E-05
  1.071632568491E-04  1.386478596567E-04  1.616335355722E-04  1.740350753206E-04
  1.754002105845E-04  1.666331131482E-04  1.496438926478E-04  1.269638550798E-04
  1.013649367900E-04  7.551728882254E-05  5.171197329584E-05  3.166687530643E-05
  1.642410875876E-05  6.337353323380E-06  1.138638269795E-06  6.691741347388E-08
  2.035998096076E-06  5.817377842875E-06  1.021438485285E-05  1.420747818541E-05
  1.705611458206E-05  1.834947245229E-05  1.800563653124E-05  1.622565186706E-05
  1.341430065934E-05  1.008288454766E-05  6.750339422043E-06  3.857640631792E-06
  1.706990608553E-06  4.323370295546E-07  2.176335512463E-09  0.000000000000E+00
  0.000000000000E+00  0.000000000000E+00  0.000000000000E+00  0.000000000000E+00
  0.000000000000E+00  0.000000000000E+00  0.000000000000E+00  0.000000000000E+00
  0.000000000000E+00  0.000000000000E+00  0.000000000000E+00  0.000000000000E+00
  0.000000000000E+00  0.000000000000E+00  0.000000000000E+00  0.000000000000E+00
  0.000000000000E+00  0.000000000000E+00  0.000000000000E+00  0.000000000000E+00
  0.000000000000E+00  0.000000000000E+00  0.000000000000E+00  0.000000000000E+00
  0.000000000000E+00  0.000000000000E+00  0.000000000000E+00  0.000000000000E+00
  0.000000000000E+00  0.000000000000E+00  0.000000000000E+00  0.000000000000E+00
  0.000000000000E+00  0.000000000000E+00  0.000000000000E+00  0.000000000000E+00
  0.000000000000E+00  0.000000000000E+00  0.000000000000E+00  0.000000000000E+00
  0.000000000000E+00  0.000000000000E+00  0.000000000000E+00  0.000000000000E+00
  0.000000000000E+00  0.000000000000E+00  0.000000000000E+00  0.000000000000E+00
  0.000000000000E+00  0.000000000000E+00  0.000000000000E+00  0.000000000000E+00
  0.000000000000E+00  0.000000000000E+00  0.000000000000E+00  0.000000000000E+00
  0.000000000000E+00  0.000000000000E+00  0.000000000000E+00  0.000000000000E+00
  0.000000000000E+00  0.000000000000E+00  0.000000000000E+00  0.000000000000E+00
  0.000000000000E+00  0.000000000000E+00  0.000000000000E+00  0.000000000000E+00
  0.000000000000E+00  0.000000000000E+00  0.000000000000E+00  0.000000000000E+00
  0.000000000000E+00  0.000000000000E+00  0.000000000000E+00  0.000000000000E+00
  0.000000000000E+00  0.000000000000E+00  0.000000000000E+00  0.000000000000E+00
  0.000000000000E+00  0.000000000000E+00  0.000000000000E+00  0.000000000000E+00
  0.000000000000E+00  0.000000000000E+00  0.000000000000E+00  0.000000000000E+00
  0.000000000000E+00  0.000000000000E+00  0.000000000000E+00  0.000000000000E+00
  0.000000000000E+00  0.000000000000E+00  0.000000000000E+00  0.000000000000E+00
  0.000000000000E+00  0.000000000000E+00
</data>
</radfunc>
</pseudocore-charge>
<semilocal-potentials set="scalar_relativistic">
<slps n="3" l="s" rc="1.26204037057" eref="-4.20429155191">
<radfunc>
<data npts="290">
 -2.920283110940E+01 -2.920284997269E+01 -2.920290603813E+01 -2.920299920148E+01
 -2.920312801150E+01 -2.920329611402E+01 -2.920350825995E+01 -2.920374827757E+01
 -2.920404200815E+01 -2.920435408955E+01 -2.920469894025E+01 -2.920506535390E+01
 -2.920549632895E+01 -2.920593238018E+01 -2.920635341972E+01 -2.920682006309E+01
 -2.920733267909E+01 -2.920779368380E+01 -2.920828244052E+01 -2.920879371732E+01
 -2.920931906976E+01 -2.920974105289E+01 -2.921015474177E+01 -2.921054786666E+01
 -2.921090428872E+01 -2.921120299347E+01 -2.921141683793E+01 -2.921150092092E+01
 -2.921149973516E+01 -2.921139155685E+01 -2.921115043143E+01 -2.921074541570E+01
 -2.921013969073E+01 -2.920928952501E+01 -2.920814306449E+01 -2.920663892295E+01
 -2.920470454319E+01 -2.920225429581E+01 -2.920028507910E+01 -2.919800792921E+01
 -2.919538478079E+01 -2.919237327110E+01 -2.918892629022E+01 -2.918499148974E+01
 -2.918051074745E+01 -2.917541958536E+01 -2.916964653865E+01 -2.916311247355E+01
 -2.915572985232E+01 -2.914740194443E+01 -2.913802198351E+01 -2.912747227090E+01
 -2.911562322782E+01 -2.910233240000E+01 -2.908744342050E+01 -2.907078493936E+01
 -2.905216953103E+01 -2.903139259513E+01 -2.900823126909E+01 -2.898244337667E+01
 -2.895376644079E+01 -2.892191679423E+01 -2.888658882694E+01 -2.884745441228E+01
 -2.880416255792E+01 -2.875633932702E+01 -2.870358807326E+01 -2.867523441266E+01
 -2.864549002636E+01 -2.861429926903E+01 -2.858160525398E+01 -2.854734990440E+01
 -2.851147401033E+01 -2.847391729114E+01 -2.843461846324E+01 -2.839351531261E+01
 -2.835054477164E+01 -2.830564299993E+01 -2.825874546859E+01 -2.820978704749E+01
 -2.815870209537E+01 -2.810542455225E+01 -2.804988803430E+01 -2.799202593103E+01
 -2.793177150509E+01 -2.786905799498E+01 -2.780381872141E+01 -2.773598719783E+01
 -2.766549724614E+01 -2.759228311859E+01 -2.751627962670E+01 -2.743742227842E+01
 -2.735564742432E+01 -2.727089241364E+01 -2.718309576085E+01 -2.709219732281E+01
 -2.699813848677E+01 -2.690086236859E+01 -2.680031402034E+01 -2.669644064603E+01
 -2.658919182358E+01 -2.647851973054E+01 -2.636437937072E+01 -2.624672879814E+01
 -2.612552933409E+01 -2.600074577273E+01 -2.587234656999E+01 -2.574030401001E+01
 -2.560459434344E+01 -2.546519789121E+01 -2.532209910807E+01 -2.517528660008E+01
 -2.502475309104E+01 -2.487049533406E+01 -2.471251396535E+01 -2.455081329953E+01
 -2.438540106733E+01 -2.421628809916E+01 -2.404348796053E+01 -2.386701654810E+01
 -2.368689165792E+01 -2.350313254080E+01 -2.331575946238E+01 -2.312479328908E+01
 -2.293025512384E+01 -2.273216601913E+01 -2.253054679770E+01 -2.232541801505E+01
 -2.211680010079E+01 -2.190471371968E+01 -2.168918039652E+01 -2.147022345233E+01
 -2.124786930257E+01 -2.102214917085E+01 -2.079310127361E+01 -2.056077353260E+01
 -2.032522687126E+01 -2.008653914966E+01 -1.984480978729E+01 -1.960016511598E+01
 -1.935276449335E+01 -1.910280719141E+01 -1.885054005347E+01 -1.859626588524E+01
 -1.834035251161E+01 -1.808324239005E+01 -1.782546262257E+01 -1.756763515402E+01
 -1.731048688402E+01 -1.705485935680E+01 -1.680171763030E+01 -1.655215786827E+01
 -1.630741315303E+01 -1.606885698966E+01 -1.583800397476E+01 -1.561650715028E+01