<?xml version="1.0" encoding="UTF-8" ?>
<psml version="1.1" energy_unit="hartree" length_unit="bohr"
 uuid="6114b6d0-1d65-11e8-63d2-859bdffecfad"
 xmlns="http://esl.cecam.org/PSML/ns/1.1">
<provenance creator="ONCVPSP-3.3.0+psml-3.3.0-73 (scalar-relativistic)"
 date="2018-03-01">
<annotation action="semilocal-pseudopotential-generation"
 action-cont="projectors-generation" />
<input-file name="oncvpsp-input">
<![CDATA[# atsym z nc nv iexc psfile
Fe 26 3 4 -116133 upf
# n l f
1 0 2.0
2 0 2.0
2 1 6.0
3 0 2.0
3 1 6.0
3 2 6.0
4 0 2.0
# lmax
2
# l rc ep ncon nbas qcut
0 1.1 0.0 3 7 10.3
1 1.1 0.0 3 7 9.2
2 1.35 0.0 3 7 10.8
# lloc lpopt rc5 dvloc0
4 5 1.1 0.0
# l nproj debl
0 2 1.0
1 2 0.8
2 2 0.8
# icmod fcfact
3 3.0 1.7
# epsh1 epsh2 depsh
-24.0 12.0 0.02
# rlmax drl
6.0 0.01
 0
]]>
</input-file>
</provenance>
<pseudo-atom-spec atomic-label="Fe" atomic-number="26" z-pseudo="16"
 flavor="Hamann&apos;s oncvpsp" relativity="scalar" spin-dft="no"
 core-corrections="yes">
<annotation pseudo-energy="-122.608136931" />
<exchange-correlation>
<annotation oncvpsp-xc-code="-116133" oncvpsp-xc-type="libxc-interface" />
<libxc-info number-of-functionals="2">
<functional name="Perdew, Burke &amp; Ernzerhof SOL (GGA)" type="exchange"
 id="116" />
<functional name="Perdew, Burke &amp; Ernzerhof SOL (GGA)" type="correlation"
 id="133" />
</libxc-info>
</exchange-correlation>
<valence-configuration total-valence-charge="16">
<shell n="3" l="s" occupation="2" />
<shell n="3" l="p" occupation="6" />
<shell n="3" l="d" occupation="6" />
<shell n="4" l="s" occupation="2" />
</valence-configuration>
</pseudo-atom-spec>
<grid npts="457">
<annotation type="sampled from oncvpsp log grid"
 recipe="r(i:1..N) = r1*exp(a*(i-1)) + r=0; resampled"
 recipe-cont="r1: scale; a: step" scale="0.192307692308E-04"
 step="0.119285708653E-01" delta="0.500000000000E-02" rmax="44.2248135897" />
<grid-data>
  0.000000000000E+00  5.050053692967E-03  1.008708593772E-02  1.513223739776E-02
  2.014816255451E-02  2.527348802918E-02  3.058816214668E-02  3.571906205505E-02
  4.072730601400E-02  4.588712082187E-02  5.108759065353E-02  5.620300303659E-02
  6.183062285620E-02  6.721515569429E-02  7.306860171076E-02  7.848991730107E-02
  8.431346671058E-02  8.949515180459E-02  9.499528970881E-02  1.008334516999E-01
  1.070304118539E-01  1.122610879123E-01  1.177473919885E-01  1.235018168622E-01
  1.295374658469E-01  1.358680826271E-01  1.425080825541E-01  1.477001832717E-01
  1.530814515745E-01  1.586587795431E-01  1.644393103617E-01  1.704304474680E-01
  1.766398640339E-01  1.830755127941E-01  1.897456362307E-01  1.966587771303E-01
  2.038237895251E-01  2.112498500326E-01  2.163502664118E-01  2.215738272440E-01
  2.269235057290E-01  2.324023468513E-01  2.380134691137E-01  2.437600663120E-01
  2.496454093530E-01  2.556728481164E-01  2.618458133614E-01  2.681678186792E-01
  2.746424624934E-01  2.812734301078E-01  2.880644958043E-01  2.950195249910E-01
  3.021424764024E-01  3.094374043527E-01  3.169084610433E-01  3.245598989268E-01
  3.323960731265E-01  3.404214439160E-01  3.486405792579E-01  3.570581574035E-01
  3.656789695559E-01  3.745079225969E-01  3.835500418800E-01  3.928104740912E-01
  4.022944901776E-01  4.120074883485E-01  4.219549971472E-01  4.270184571129E-01
  4.321426785983E-01  4.373283907415E-01  4.425763314304E-01  4.478872474075E-01
  4.532618943764E-01  4.587010371089E-01  4.642054495543E-01  4.697759149489E-01
  4.754132259283E-01  4.811181846394E-01  4.868916028551E-01  4.927343020894E-01
  4.986471137144E-01  5.046308790790E-01  5.106864496280E-01  5.168146870235E-01
  5.230164632678E-01  5.292926608270E-01  5.356441727569E-01  5.420719028300E-01
  5.485767656640E-01  5.551596868519E-01  5.618216030941E-01  5.685634623313E-01
  5.753862238793E-01  5.822908585658E-01  5.892783488686E-01  5.963496890550E-01
  6.035058853237E-01  6.107479559476E-01  6.180769314189E-01  6.254938545960E-01
  6.329997808511E-01  6.405957782213E-01  6.482829275600E-01  6.560623226907E-01
  6.639350705630E-01  6.719022914097E-01  6.799651189067E-01  6.881247003335E-01
  6.963821967375E-01  7.047387830984E-01  7.131956484956E-01  7.217539962775E-01
  7.304150442328E-01  7.391800247636E-01  7.480501850608E-01  7.570267872815E-01
  7.661111087289E-01  7.753044420337E-01  7.846080953381E-01  7.940233924821E-01
  8.035516731919E-01  8.131942932702E-01  8.229526247895E-01  8.328280562869E-01
  8.428219929624E-01  8.529358568779E-01  8.631710871605E-01  8.735291402064E-01
  8.840114898889E-01  8.946196277675E-01  9.053550633007E-01  9.162193240603E-01
  9.272139559491E-01  9.383405234205E-01  9.496006097015E-01  9.609958170179E-01
  9.725277668221E-01  9.841981000240E-01  9.960084772243E-01  1.007960578951E+00
  1.020056105898E+00  1.032296779169E+00  1.044684340519E+00  1.057220552605E+00
  1.069907199237E+00  1.082746085628E+00  1.095739038655E+00  1.108887907119E+00
  1.122194562004E+00  1.135660896748E+00  1.149288827509E+00  1.163080293440E+00
  1.177037256961E+00  1.191161704044E+00  1.205455644493E+00  1.219921112227E+00
  1.234560165573E+00  1.249374887560E+00  1.264367386211E+00  1.279539794846E+00
  1.294894272384E+00  1.310433003652E+00  1.326158199696E+00  1.342072098093E+00
  1.358176963270E+00  1.374475086829E+00  1.390968787871E+00  1.407660413325E+00
  1.424552338285E+00  1.441646966345E+00  1.458946729941E+00  1.476454090700E+00
  1.494171539788E+00  1.512101598266E+00  1.530246817445E+00  1.548609779254E+00
  1.567193096605E+00  1.585999413765E+00  1.605031406730E+00  1.624291783611E+00
  1.643783285014E+00  1.663508684434E+00  1.683470788647E+00  1.703672438111E+00
  1.724116507368E+00  1.744805905457E+00  1.765743576322E+00  1.786932499238E+00
  1.808375689229E+00  1.830076197500E+00  1.852037111870E+00  1.874261557212E+00
  1.896752695899E+00  1.919513728250E+00  1.942547892989E+00  1.965858467705E+00
  1.989448769317E+00  2.013322154549E+00  2.037482020403E+00  2.061931804648E+00
  2.086674986304E+00  2.111715086140E+00  2.137055667173E+00  2.162700335179E+00
  2.188652739202E+00  2.214916572072E+00  2.241495570937E+00  2.268393517788E+00
  2.295614240002E+00  2.323161610882E+00  2.351039550212E+00  2.379252024815E+00
  2.407803049112E+00  2.436696685702E+00  2.465937045930E+00  2.495528290481E+00
  2.525474629967E+00  2.555780325527E+00  2.586449689433E+00  2.617487085706E+00
  2.648896930735E+00  2.680683693904E+00  2.712851898230E+00  2.745406121009E+00
  2.778350994461E+00  2.811691206395E+00  2.845431500872E+00  2.879576678882E+00
  2.914131599029E+00  2.949101178217E+00  2.984490392356E+00  3.020304277064E+00
  3.056547928389E+00  3.093226503529E+00  3.130345221572E+00  3.167909364230E+00
  3.205924276601E+00  3.244395367920E+00  3.283328112335E+00  3.322728049683E+00
  3.362600786280E+00  3.402951995715E+00  3.443787419664E+00  3.485112868700E+00
  3.526934223124E+00  3.569257433801E+00  3.612088523007E+00  3.655433585283E+00
  3.699298788307E+00  3.743690373766E+00  3.788614658251E+00  3.834078034150E+00
  3.880086970560E+00  3.926648014207E+00  3.973767790377E+00  4.021453003862E+00
  4.069710439908E+00  4.118546965187E+00  4.167969528769E+00  4.217985163115E+00
  4.268600985072E+00  4.319824196893E+00  4.371662087256E+00  4.424122032303E+00
  4.477211496690E+00  4.530938034651E+00  4.585309291066E+00  4.640333002559E+00
  4.696016998590E+00  4.752369202573E+00  4.809397633004E+00  4.867110404600E+00
  4.925515729455E+00  4.984621918209E+00  5.044437381227E+00  5.104970629802E+00
  5.166230277360E+00  5.228225040688E+00  5.290963741176E+00  5.354455306070E+00
  5.418708769743E+00  5.483733274980E+00  5.549538074280E+00  5.616132531171E+00
  5.683526121545E+00  5.751728435004E+00  5.820749176224E+00  5.890598166338E+00
  5.961285344334E+00  6.032820768466E+00  6.105214617688E+00  6.178477193100E+00
  6.252618919418E+00  6.327650346451E+00  6.403582150608E+00  6.480425136415E+00
  6.558190238052E+00  6.636888520909E+00  6.716531183160E+00  6.797129557358E+00
  6.878695112046E+00  6.961239453391E+00  7.044774326831E+00  7.129311618753E+00
  7.214863358178E+00  7.301441718476E+00  7.389059019098E+00  7.477727727327E+00
  7.567460460055E+00  7.658269985576E+00  7.750169225403E+00  7.843171256108E+00
  7.937289311181E+00  8.032536782915E+00  8.128927224310E+00  8.226474351002E+00
  8.325192043214E+00  8.425094347732E+00  8.526195479905E+00  8.628509825664E+00
  8.732051943572E+00  8.836836566895E+00  8.942878605698E+00  9.050193148966E+00
  9.158795466753E+00  9.268701012355E+00  9.379925424503E+00  9.492484529597E+00
  9.606394343952E+00  9.721671076079E+00  9.838331128992E+00  9.956391102540E+00
  1.007586779577E+01  1.019677820932E+01  1.031913954783E+01  1.044296922241E+01
  1.056828485307E+01  1.069510427131E+01  1.082344552257E+01  1.095332686884E+01
  1.108476679126E+01  1.121778399276E+01  1.135239740067E+01  1.148862616948E+01
  1.162648968351E+01  1.176600755972E+01  1.190719965043E+01  1.205008604624E+01
  1.219468707879E+01  1.234102332374E+01  1.248911560362E+01  1.263898499087E+01
  1.279065281076E+01  1.294414064449E+01  1.309947033222E+01  1.325666397621E+01
  1.341574394392E+01  1.357673287125E+01  1.373965366570E+01  1.390452950969E+01
  1.407138386381E+01  1.424024047017E+01  1.441112335582E+01  1.458405683609E+01
  1.475906551812E+01  1.493617430434E+01  1.511540839599E+01  1.529679329674E+01
  1.548035481630E+01  1.566611907410E+01  1.585411250299E+01  1.604436185302E+01
  1.623689419526E+01  1.643173692560E+01  1.662891776871E+01  1.682846478193E+01
  1.703040635932E+01  1.723477123563E+01  1.744158849046E+01  1.765088755234E+01
  1.786269820297E+01  1.807705058140E+01  1.829397518838E+01  1.851350289064E+01
  1.873566492533E+01  1.896049290443E+01  1.918801881929E+01  1.941827504512E+01
  1.965129434566E+01  1.988710987781E+01  2.012575519634E+01  2.036726425870E+01
  2.061167142980E+01  2.085901148696E+01  2.110931962480E+01  2.136263146030E+01
  2.161898303782E+01  2.187841083428E+01  2.214095176429E+01  2.240664318546E+01
  2.267552290369E+01  2.294762917853E+01  2.322300072867E+01  2.350167673742E+01
  2.378369685827E+01  2.406910122057E+01  2.435793043521E+01  2.465022560043E+01
  2.494602830764E+01  2.524538064733E+01  2.554832521510E+01  2.585490511768E+01
  2.616516397909E+01  2.647914594684E+01  2.679689569820E+01  2.711845844658E+01
  2.744387994794E+01  2.777320650732E+01  2.810648498540E+01  2.844376280523E+01
  2.878508795889E+01  2.913050901440E+01  2.948007512257E+01  2.983383602404E+01
  3.019184205633E+01  3.055414416101E+01  3.092079389094E+01  3.129184341763E+01
  3.166734553864E+01  3.204735368511E+01  3.243192192933E+01  3.282110499248E+01
  3.321495825239E+01  3.361353775142E+01  3.401690020443E+01  3.442510300689E+01
  3.483820424297E+01  3.525626269389E+01  3.567933784621E+01  3.610748990037E+01
  3.654077977917E+01  3.697926913652E+01  3.742302036616E+01  3.787209661055E+01
  3.832656176988E+01  3.878648051112E+01  3.925191827725E+01  3.972294129658E+01
  4.019961659214E+01  4.068201199124E+01  4.117019613514E+01  4.166423848876E+01
  4.216420935063E+01  4.267017986283E+01  4.318222202119E+01  4.370040868544E+01
  4.422481358967E+01
</grid-data>
</grid>
<valence-charge total-charge="16" is-unscreening-charge="yes"
 rescaled-to-z-pseudo="no">
<radfunc>
<data npts="457">
  5.417252739777E+00  5.424270979053E+00  5.445250968536E+00  5.480253228771E+00
  5.528919227880E+00  5.592911276148E+00  5.674470408044E+00  5.767865077266E+00
  5.872879724332E+00  5.995345398190E+00  6.133386042645E+00  6.283425466625E+00
  6.464751188149E+00  6.654115948555E+00  6.877477003608E+00  7.100510406786E+00
  7.357279950298E+00  7.600599645923E+00  7.874041102055E+00  8.181213973564E+00
  8.526122911351E+00  8.832182151685E+00  9.167695513939E+00  9.535333518538E+00
  9.937967098449E+00  1.037867122475E+01  1.086072483975E+01  1.125148558261E+01
  1.166899490167E+01  1.211484469988E+01  1.259067524991E+01  1.309816644415E+01
  1.363902629637E+01  1.421497617260E+01  1.482773215549E+01  1.547898187023E+01
  1.617035602120E+01  1.690339381243E+01  1.741593343054E+01  1.794799271994E+01
  1.849990210256E+01  1.907194026866E+01  1.966432494375E+01  2.027720269774E+01
  2.091063774495E+01  2.156459969043E+01  2.223895018687E+01  2.293342847824E+01
  2.364763582223E+01  2.438101880301E+01  2.513285157040E+01  2.590221707161E+01
  2.668798737697E+01  2.748880324380E+01  2.830305311150E+01  2.912885177770E+01
  2.996401906953E+01  3.080605889605E+01  3.165213914699E+01  3.249907298897E+01
  3.334330220171E+01  3.418088329177E+01  3.500747721791E+01  3.581834365616E+01
  3.660834082104E+01  3.737193193548E+01  3.810319950106E+01  3.845476415079E+01
  3.879586855321E+01  3.912567796415E+01  3.944334008613E+01  3.974798674853E+01
  4.003873578866E+01  4.031469314045E+01  4.057495513645E+01  4.081861102790E+01
  4.104474572627E+01  4.125244276848E+01  4.144078750616E+01  4.160887051783E+01
  4.175579124084E+01  4.188066181764E+01  4.198261114893E+01  4.206078914361E+01
  4.211437115268E+01  4.214256257175E+01  4.214460359352E+01  4.211977408894E+01
  4.206739859217E+01  4.198685136163E+01  4.187756148592E+01  4.173901800039E+01
  4.157077497678E+01  4.137245654536E+01  4.114376180620E+01  4.088446958337E+01
  4.059444297355E+01  4.027363363857E+01  3.992208578959E+01  3.953993980970E+01
  3.912743546105E+01  3.868491462262E+01  3.821282350572E+01  3.771171429545E+01
  3.718224616905E+01  3.662518564497E+01  3.604140622060E+01  3.543188726173E+01
  3.479771211236E+01  3.414006540067E+01  3.346022952424E+01  3.275958030637E+01
  3.203958182446E+01  3.130178042134E+01  3.054779792086E+01  2.977932407989E+01
  2.899810832001E+01  2.820595079307E+01  2.740469284609E+01  2.659620696127E+01
  2.578238625693E+01  2.496513364458E+01  2.414635074504E+01  2.332792667374E+01
  2.251172681018E+01  2.169958167080E+01  2.089327600538E+01  2.009453823792E+01
  1.930503036955E+01  1.852633845776E+01  1.775996377869E+01  1.700731477155E+01
  1.626969985335E+01  1.554832118027E+01  1.484426941814E+01  1.415851957007E+01
  1.349192789345E+01  1.284522992230E+01  1.221903959500E+01  1.161384947130E+01
  1.103003200722E+01  1.046784184224E+01  9.927419040490E+00  9.408793216117E+00
  8.911888464221E+00  8.436529011184E+00  7.982445493541E+00  7.549281771729E+00
  7.136600615233E+00  6.743889131152E+00  6.370583606220E+00  6.016084791254E+00
  5.679762477421E+00  5.360961682665E+00  5.059008635471E+00  4.773216421399E+00
  4.502890276208E+00  4.247332498816E+00  4.005846962937E+00  3.777743209852E+00
  3.562340107562E+00  3.358969063740E+00  3.166976781632E+00  2.985727549683E+00
  2.814605057563E+00  2.653035051746E+00  2.500553427688E+00  2.356756023381E+00
  2.221232517197E+00  2.093582368534E+00  1.973415462380E+00  1.860352659384E+00
  1.754026255979E+00  1.654080359254E+00  1.560171181388E+00  1.471967258552E+00
  1.389149599185E+00  1.311411766627E+00  1.238459901028E+00  1.170012685420E+00
  1.105801260783E+00  1.045569094827E+00  9.890718090968E-01  9.360769688855E-01
  8.863638402582E-01  8.397231183448E-01  7.959566308492E-01  7.548770205298E-01
  7.163074101908E-01  6.800810534998E-01  6.460409747187E-01  6.140396002026E-01
  5.839383842883E-01  5.556074319638E-01  5.289251204862E-01  5.037777218973E-01
  4.800590281822E-01  4.576699806200E-01  4.365183046955E-01  4.165181517740E-01
  3.975897485852E-01  3.796590554219E-01  3.626574338296E-01  3.465213244420E-01
  3.311919355102E-01  3.166149425689E-01  3.027401995876E-01  2.895214618704E-01
  2.769161208781E-01  2.648849510754E-01  2.533918688292E-01  2.424037033198E-01
  2.318899793630E-01  2.218227119881E-01  2.121762125641E-01  2.029269062240E-01
  1.940531602977E-01  1.855351234318E-01  1.773545750470E-01  1.694947847612E-01
  1.619403813927E-01  1.546772311394E-01  1.476923245286E-01  1.409736717220E-01
  1.345102057625E-01  1.282916933502E-01  1.223086527386E-01  1.165522783510E-01
  1.110143717211E-01  1.056872783776E-01  1.005638302973E-01  9.563729356788E-02
  9.090132091300E-02  8.634990874456E-02  8.197735842232E-02  7.777824141426E-02
  7.374736806544E-02  6.987975969745E-02  6.617062377448E-02  6.261533188648E-02
  5.920940031384E-02  5.594847295190E-02  5.282830638746E-02  4.984475693315E-02
  4.699376943891E-02  4.427136771321E-02  4.167364639970E-02  3.919676416788E-02
  3.683693808850E-02  3.459043907686E-02  3.245358829174E-02  3.042275442940E-02
  2.849435175803E-02  2.666483888612E-02  2.493071816193E-02  2.328853564841E-02
  2.173488161666E-02  2.026639150429E-02  1.887974728784E-02  1.757167921899E-02
  1.633896787500E-02  1.517844647278E-02  1.408700339531E-02  1.306158487780E-02
  1.209919779994E-02  1.119691253043E-02  1.035186576979E-02  9.561263338882E-03
  8.822382862493E-03  8.132576300507E-03  7.489272283233E-03  6.889978212363E-03
  6.332282094656E-03  5.813854081549E-03  5.332447694310E-03  4.885900720829E-03
  4.472135776584E-03  4.089160528369E-03  3.735067585103E-03  3.408034065151E-03
  3.106320854093E-03  2.828271570706E-03  2.572311262020E-03  2.336944850737E-03
  2.120755360014E-03  1.922401941688E-03  1.740617734527E-03  1.574207579053E-03
  1.422045614944E-03  1.283072786183E-03  1.156294277827E-03  1.040776906821E-03
  9.356464875665E-04  8.400851911266E-04  7.533289150200E-04  6.746646786075E-04
  6.034280571169E-04  5.390006654479E-04  4.808077010788E-04  4.283155536739E-04
  3.810294874084E-04  3.384914005818E-04  3.002776658050E-04  2.659970529180E-04
  2.352887358251E-04  2.078203836198E-04  1.832863357000E-04  1.614058600323E-04
  1.419214933080E-04  1.245974614085E-04  1.092181783686E-04  9.558682186276E-05
  8.352398313207E-05  7.286638920390E-05  6.346569522285E-05  5.518734469516E-05
  4.790949544660E-05  4.152200909776E-05  3.592550186530E-05  3.103045450269E-05
  2.675637919587E-05  2.303104122898E-05  1.978973323207E-05  1.697459981925E-05
  1.453401042119E-05  1.242197811363E-05  1.059762224416E-05  9.024672664110E-06
  7.671013383209E-06  6.508263481280E-06  5.511393135666E-06  4.658372654613E-06
  3.929852446311E-06  3.308871900269E-06  2.780595211924E-06  2.332072242306E-06
  1.952022571581E-06  1.630640977511E-06  1.359422646561E-06  1.131006505524E-06
  9.390351443352E-07  7.780298855498E-07  6.432796389691E-07  5.307422776465E-07
  4.369573093628E-07  3.589688417518E-07  2.942575722290E-07  2.406813459372E-07
  1.964227250301E-07  1.599432498988E-07  1.299436741041E-07  1.053293455708E-07
  8.518015961879E-08  6.872455869693E-08  5.531709491425E-08  4.441911784057E-08
  3.558219521531E-08  2.843391655840E-08  2.259249391917E-08  1.796717793567E-08
  1.425279675122E-08  1.127750599016E-08  8.900344588390E-09  7.005984795536E-09
  5.500318160977E-09  4.306754577938E-09  3.363127774830E-09  2.619115083858E-09
  2.034092052419E-09  1.575353653954E-09  1.216643653879E-09  9.369422358769E-10
  7.194694271648E-10  5.508683016277E-10  4.205375000328E-10  3.200873906076E-10
  2.428982951020E-10  1.837627102340E-10  1.385964386756E-10  1.042060759929E-10
  7.810244123519E-11  5.835134324820E-11  4.345458999910E-11  3.225541613157E-11
  2.386356127156E-11  1.759611015929E-11  1.293093313212E-11  9.470165674019E-12
  6.911659173381E-12  5.026739224744E-12  3.642937709256E-12  2.630633168913E-12
  1.892751357858E-12  1.356853320750E-12  9.690794621031E-13  6.895311303393E-13
  4.887614798009E-13  3.451191236082E-13  2.427449183461E-13  1.700670558896E-13
  1.186748704736E-13  8.247934663756E-14  5.708981271232E-14  3.935299697905E-14
  2.701353112890E-14  1.846492517919E-14  1.256766006941E-14  8.516864447504E-15
  5.746467643516E-15  3.860071277963E-15  2.581307470694E-15  1.718346936751E-15
  1.138636306747E-15  7.509972260850E-16  4.929995778577E-16  3.220958690875E-16
  2.094253939394E-16  1.355045846596E-16  8.724362025394E-17  5.589110287028E-17
  3.562500629187E-17  2.259145135298E-17  1.425225391276E-17  8.944296882947E-18
  5.583477515955E-18  3.466822376482E-18  2.140911294432E-18  1.314854475547E-18
  8.030451548394E-19  4.877041893854E-19  2.945085311301E-19  1.768212358287E-19
  1.055446020993E-19  6.262853394569E-20  3.694130694591E-20  2.165832470968E-20
  1.262055557761E-20  7.308716460638E-21  4.206107656307E-21  2.405267850457E-21
  1.366648778754E-21  7.714849024023E-22  0.000000000000E+00  0.000000000000E+00
  0.000000000000E+00  0.000000000000E+00  0.000000000000E+00  0.000000000000E+00
  0.000000000000E+00  0.000000000000E+00  0.000000000000E+00  0.000000000000E+00
  0.000000000000E+00  0.000000000000E+00  0.000000000000E+00  0.000000000000E+00
  0.000000000000E+00
</data>
</radfunc>
</valence-charge>
<pseudocore-charge matching-radius="0.416951578209"
 number-of-continuous-derivatives="4">
<annotation model-charge-form="Teter function with specified parameters" />
<radfunc>
<data npts="290">
  1.222174957622E+02  1.221978965662E+02  1.221393185441E+02  1.220416255123E+02
  1.219058718742E+02  1.217274996455E+02  1.215003794255E+02  1.212405999513E+02
  1.209488789272E+02  1.206091847828E+02  1.202269347722E+02  1.198122283452E+02
  1.193121062608E+02  1.187910351003E+02  1.181780039250E+02  1.175675627429E+02
  1.168668468239E+02  1.162048392656E+02  1.154631673609E+02  1.146328415909E+02
  1.137040180992E+02  1.128828576242E+02  1.119858879882E+02  1.110068127844E+02
  1.099389598193E+02  1.087752914614E+02  1.075084243682E+02  1.064859298175E+02
  1.053977120247E+02  1.042403500640E+02  1.030103691252E+02  1.017042618907E+02
  1.003185142280E+02  9.884963569202E+01  9.729419534797E+01  9.564886343148E+01
  9.391045935330E+01  9.207600653123E+01  9.079832605796E+01  8.947602241311E+01
  8.810844853234E+01  8.669504431674E+01  8.523534807037E+01  8.372900862872E+01
  8.217579815937E+01  8.057562560425E+01  7.892855071936E+01  7.723479865191E+01
  7.549477497750E+01  7.370908109969E+01  7.187852989260E+01  7.000416144276E+01
  6.808725871982E+01  6.612936297756E+01  6.413228865573E+01  6.209813752174E+01
  6.002931175765E+01  5.792852566441E+01  5.579881562133E+01  5.364354790629E+01
  5.146642395147E+01  4.927148258213E+01  4.706309876363E+01  4.484597836636E+01
  4.262514845132E+01  4.040594258274E+01  3.819398069200E+01  3.709254449241E+01
  3.599514304967E+01  3.490254677539E+01  3.381553795436E+01  3.273490936967E+01
  3.166146281983E+01  3.059600752718E+01  2.953935843777E+01  2.849233441315E+01
  2.745575631570E+01  2.643044498933E+01  2.541721913863E+01  2.441689311014E+01
  2.343027458048E+01  2.245816215695E+01  2.150134289719E+01  2.056058975573E+01
  1.963665896601E+01  1.873028736800E+01  1.784218969227E+01  1.697305581270E+01
  1.612354798137E+01  1.529429805980E+01  1.448590476236E+01  1.369893092852E+01
  1.293390084154E+01  1.219129761240E+01  1.147156064850E+01  1.077508322747E+01
  1.010221019712E+01  9.453235822960E+00  8.828401805256E+00  8.227895487483E+00
  7.651848278245E+00  7.100334308244E+00  6.573369343466E+00  6.070909974898E+00
  5.592853104033E+00  5.139035742005E+00  4.709235138531E+00  4.303169254789E+00
  3.920497592040E+00  3.560822385112E+00  3.223690166896E+00  2.908593706684E+00
  2.614974321599E+00  2.342224556504E+00  2.089691223686E+00  1.856678789302E+00
  1.642453089147E+00  1.446245351761E+00  1.267256502301E+00  1.104661716101E+00
  9.576151863886E-01  8.252550664279E-01  7.067085424126E-01  6.010969898693E-01
  5.075411632548E-01  4.251663659049E-01  3.531075456363E-01  2.905142601891E-01
  2.365554564154E-01  1.904240077370E-01  1.513409559661E-01  1.185594061620E-01
  9.136802679056E-02  6.909411207759E-02  5.110616907018E-02  3.681599849717E-02
  2.568024597091E-02  1.720140829236E-02  1.092828847406E-02  6.455902416277E-03
  3.424849770381E-03  1.520171185204E-03  4.697236237627E-04  4.211451069663E-05
  4.424387050414E-05  3.185110877094E-04  7.397492166345E-04  1.211954662440E-03
  1.664883346672E-03  2.050585997562E-03  2.339954852918E-03  2.519351772596E-03
  2.587383532411E-03  2.551883984653E-03  2.427154966243E-03  2.231508530021E-03
  1.985142552024E-03  1.708370374374E-03  1.420213277506E-03  1.137352672755E-03
  8.734274232997E-04  6.386510951818E-04  4.397146467900E-04  2.799324767150E-04
  1.595841916417E-04  7.640116567493E-05  2.614607234312E-05  3.235093830069E-06
  1.356335917020E-06  1.404386247243E-05  3.517435229288E-05  5.936221324264E-05
  8.223852497765E-05  1.006088357410E-04  1.124940139171E-04  1.170664840339E-04
  1.145007629868E-04  1.057618674325E-04  9.235764059069E-05  7.608126326182E-05
  5.876826207184E-05  4.208847228729E-05  2.738807148360E-05  1.559051345476E-05
  7.158573853774E-06  2.113404958309E-06  1.010813980953E-07  4.930973415832E-07
  2.504993559121E-06  5.316906363627E-06  8.181288331089E-06  1.050609721788E-05
  1.190595172214E-05  1.221854996861E-05  1.148841732217E-05  9.924189374018E-06
  7.838633390342E-06  5.582119993979E-06  3.480140901890E-06  1.783824858570E-06
  6.395487808266E-07  8.016467404301E-08  0.000000000000E+00  0.000000000000E+00
  0.000000000000E+00  0.000000000000E+00  0.000000000000E+00  0.000000000000E+00
  0.000000000000E+00  0.000000000000E+00  0.000000000000E+00  0.000000000000E+00
  0.000000000000E+00  0.000000000000E+00  0.000000000000E+00  0.000000000000E+00
  0.000000000000E+00  0.000000000000E+00  0.000000000000E+00  0.000000000000E+00
  0.000000000000E+00  0.000000000000E+00  0.000000000000E+00  0.000000000000E+00
  0.000000000000E+00  0.000000000000E+00  0.000000000000E+00  0.000000000000E+00
  0.000000000000E+00  0.000000000000E+00  0.000000000000E+00  0.000000000000E+00
  0.000000000000E+00  0.000000000000E+00  0.000000000000E+00  0.000000000000E+00
  0.000000000000E+00  0.000000000000E+00  0.000000000000E+00  0.000000000000E+00
  0.000000000000E+00  0.000000000000E+00  0.000000000000E+00  0.000000000000E+00
  0.000000000000E+00  0.000000000000E+00  0.000000000000E+00  0.000000000000E+00
  0.000000000000E+00  0.000000000000E+00  0.000000000000E+00  0.000000000000E+00
  0.000000000000E+00  0.000000000000E+00  0.000000000000E+00  0.000000000000E+00
  0.000000000000E+00  0.000000000000E+00  0.000000000000E+00  0.000000000000E+00
  0.000000000000E+00  0.000000000000E+00  0.000000000000E+00  0.000000000000E+00
  0.000000000000E+00  0.000000000000E+00  0.000000000000E+00  0.000000000000E+00
  0.000000000000E+00  0.000000000000E+00  0.000000000000E+00  0.000000000000E+00
  0.000000000000E+00  0.000000000000E+00  0.000000000000E+00  0.000000000000E+00
  0.000000000000E+00  0.000000000000E+00  0.000000000000E+00  0.000000000000E+00
  0.000000000000E+00  0.000000000000E+00  0.000000000000E+00  0.000000000000E+00
  0.000000000000E+00  0.000000000000E+00  0.000000000000E+00  0.000000000000E+00
  0.000000000000E+00  0.000000000000E+00
</data>
</radfunc>
</pseudocore-charge>
<semilocal-potentials set="scalar_relativistic">
<slps n="3" l="s" rc="1.10888790712" eref="-3.44584974957">
<radfunc>
<data npts="290">
 -1.162641941327E+01 -1.162949504177E+01 -1.163868361268E+01 -1.165399901064E+01
 -1.167526334923E+01 -1.170317197399E+01 -1.173865624746E+01 -1.177917233655E+01
 -1.182458038898E+01 -1.187733639345E+01 -1.193654842131E+01 -1.200060533149E+01
 -1.207760378875E+01 -1.215753563257E+01 -1.225119441946E+01 -1.234405168753E+01
 -1.245014456395E+01 -1.254989185905E+01 -1.266108616526E+01 -1.278487851964E+01
 -1.292249377094E+01 -1.304340464230E+01 -1.317467606734E+01 -1.331701455512E+01
 -1.347113862469E+01 -1.363777075717E+01 -1.381762742462E+01 -1.396161969691E+01
 -1.411372757271E+01 -1.427422014149E+01 -1.444334780688E+01 -1.462133733289E+01
 -1.480838637503E+01 -1.500465749030E+01 -1.521027162855E+01 -1.542530111821E+01
 -1.564976217099E+01 -1.588360694325E+01 -1.604466050147E+01 -1.620977756459E+01
 -1.637888569219E+01 -1.655189408849E+01 -1.672869240915E+01 -1.690914956578E+01
 -1.709311253550E+01 -1.728040518400E+01 -1.747082711037E+01 -1.766415252317E+01
 -1.786012915713E+01 -1.805847724048E+01 -1.825888852329E+01 -1.846102537716E+01
 -1.866451997719E+01 -1.886897357691E+01 -1.907395588727E+01 -1.927900457065E+01
 -1.948362486106E+01 -1.968728932167E+01 -1.988943775119E+01 -2.008947725068E+01
 -2.028678246299E+01 -2.048069599769E+01 -2.067052905522E+01 -2.085556226525E+01
 -2.103504675624E+01 -2.120820547474E+01 -2.137423477593E+01 -2.145431794255E+01
 -2.153230630948E+01 -2.160809283498E+01 -2.168156922836E+01 -2.175262603891E+01
 -2.182115275103E+01 -2.188703788615E+01 -2.195016911142E+01 -2.201043335577E+01
 -2.206771693348E+01 -2.212190567559E+01 -2.217288506959E+01 -2.222054040752E+01
 -2.226475694290E+01 -2.230542005672E+01 -2.234241543272E+01 -2.237562924226E+01
 -2.240494833883E+01 -2.243026046250E+01 -2.245145445421E+01 -2.246842048012E+01
 -2.248105026584E+01 -2.248923734041E+01 -2.249287728999E+01 -2.249186802080E+01
 -2.248611003102E+01 -2.247550669122E+01 -2.245996453262E+01 -2.243939354274E+01
 -2.241370746742E+01 -2.238282411855E+01 -2.234666568645E+01 -2.230515905593E+01
 -2.225823612474E+01 -2.220583412332E+01 -2.214789593440E+01 -2.208437041106E+01
 -2.201521269174E+01 -2.194038451048E+01 -2.185985450073E+01 -2.177359849097E+01
 -2.168159978999E+01 -2.158384946008E+01 -2.148034657578E+01 -2.137109846619E+01
 -2.125612093846E+01 -2.113543848039E+01 -2.100908443975E+01 -2.087710117835E+01
 -2.073954019901E+01 -2.059646224362E+01 -2.044793736142E+01 -2.029404494664E+01
 -2.013487374606E+01 -1.997052183738E+01 -1.980109658116E+01 -1.962671455022E+01
 -1.944750144223E+01 -1.926359198353E+01 -1.907512983446E+01 -1.888226750905E+01
 -1.868516632529E+01 -1.848399640476E+01 -1.827893674414E+01 -1.807017538403E+01
 -1.785790970351E+01 -1.764234687158E+01 -1.742370448793E+01 -1.720221144647E+01
 -1.697810905359E+01 -1.675165242965E+01 -1.652311221604E+01 -1.629277659979E+01
 -1.606095365293E+01 -1.582797396359E+01 -1.559419350899E+01 -1.535999668639E+01
 -1.512579934018E+01 -1.489205219844E+01 -1.465924243598E+01 -1.442788472786E+01
 -1.425819222627E+01 -1.409017160762E+01 -1.392403370406E+01 -1.375974876344E+01
 -1.359728528482E+01 -1.343661702066E+01 -1.327771725462E+01 -1.312055990915E+01