<?xml version="1.0" encoding="UTF-8" ?>
<psml version="1.1" energy_unit="hartree" length_unit="bohr"
 uuid="c4174c80-1d5f-11e8-58bb-65b0dfdf789b"
 xmlns="http://esl.cecam.org/PSML/ns/1.1">
<provenance creator="ONCVPSP-3.3.0+psml-3.3.0-73 (scalar-relativistic)"
 date="2018-03-01">
<annotation action="semilocal-pseudopotential-generation"
 action-cont="projectors-generation" />
<input-file name="oncvpsp-input">
<![CDATA[# atsym z nc nv iexc psfile
Fe 26 3 4 -116133 upf
# n l f
1 0 2.0
2 0 2.0
2 1 6.0
3 0 2.0
3 1 6.0
3 2 6.0
4 0 2.0
# lmax
2
# l rc ep ncon nbas qcut
0 1.25 0.0 3 7 9.4
1 1.2 0.0 3 7 9.4
2 1.55 0.0 3 7 9.4
# lloc lpopt rc5 dvloc0
4 5 1.1 0.0
# l nproj debl
0 2 1.0
1 2 0.8
2 2 0.8
# icmod fcfact rcfact
3 3.0 1.7
# epsh1 epsh2 depsh
-24.0 12.0 0.02
# rlmax drl
6.0 0.01
 0
]]>
</input-file>
</provenance>
<pseudo-atom-spec atomic-label="Fe" atomic-number="26" z-pseudo="16"
 flavor="Hamann&apos;s oncvpsp" relativity="scalar" spin-dft="no"
 core-corrections="yes">
<annotation pseudo-energy="-121.530290137" />
<exchange-correlation>
<annotation oncvpsp-xc-code="-116133" oncvpsp-xc-type="libxc-interface" />
<libxc-info number-of-functionals="2">
<functional name="Perdew, Burke &amp; Ernzerhof SOL (GGA)" type="exchange"
 id="116" />
<functional name="Perdew, Burke &amp; Ernzerhof SOL (GGA)" type="correlation"
 id="133" />
</libxc-info>
</exchange-correlation>
<valence-configuration total-valence-charge="16">
<shell n="3" l="s" occupation="2" />
<shell n="3" l="p" occupation="6" />
<shell n="3" l="d" occupation="6" />
<shell n="4" l="s" occupation="2" />
</valence-configuration>
</pseudo-atom-spec>
<grid npts="457">
<annotation type="sampled from oncvpsp log grid"
 recipe="r(i:1..N) = r1*exp(a*(i-1)) + r=0; resampled"
 recipe-cont="r1: scale; a: step" scale="0.192307692308E-04"
 step="0.119285708653E-01" delta="0.500000000000E-02" rmax="44.2248135897" />
<grid-data>
  0.000000000000E+00  5.050053692967E-03  1.008708593772E-02  1.513223739776E-02
  2.014816255451E-02  2.527348802918E-02  3.058816214668E-02  3.571906205505E-02
  4.072730601400E-02  4.588712082187E-02  5.108759065353E-02  5.620300303659E-02
  6.183062285620E-02  6.721515569429E-02  7.306860171076E-02  7.848991730107E-02
  8.431346671058E-02  8.949515180459E-02  9.499528970881E-02  1.008334516999E-01
  1.070304118539E-01  1.122610879123E-01  1.177473919885E-01  1.235018168622E-01
  1.295374658469E-01  1.358680826271E-01  1.425080825541E-01  1.477001832717E-01
  1.530814515745E-01  1.586587795431E-01  1.644393103617E-01  1.704304474680E-01
  1.766398640339E-01  1.830755127941E-01  1.897456362307E-01  1.966587771303E-01
  2.038237895251E-01  2.112498500326E-01  2.163502664118E-01  2.215738272440E-01
  2.269235057290E-01  2.324023468513E-01  2.380134691137E-01  2.437600663120E-01
  2.496454093530E-01  2.556728481164E-01  2.618458133614E-01  2.681678186792E-01
  2.746424624934E-01  2.812734301078E-01  2.880644958043E-01  2.950195249910E-01
  3.021424764024E-01  3.094374043527E-01  3.169084610433E-01  3.245598989268E-01
  3.323960731265E-01  3.404214439160E-01  3.486405792579E-01  3.570581574035E-01
  3.656789695559E-01  3.745079225969E-01  3.835500418800E-01  3.928104740912E-01
  4.022944901776E-01  4.120074883485E-01  4.219549971472E-01  4.270184571129E-01
  4.321426785983E-01  4.373283907415E-01  4.425763314304E-01  4.478872474075E-01
  4.532618943764E-01  4.587010371089E-01  4.642054495543E-01  4.697759149489E-01
  4.754132259283E-01  4.811181846394E-01  4.868916028551E-01  4.927343020894E-01
  4.986471137144E-01  5.046308790790E-01  5.106864496280E-01  5.168146870235E-01
  5.230164632678E-01  5.292926608270E-01  5.356441727569E-01  5.420719028300E-01
  5.485767656640E-01  5.551596868519E-01  5.618216030941E-01  5.685634623313E-01
  5.753862238793E-01  5.822908585658E-01  5.892783488686E-01  5.963496890550E-01
  6.035058853237E-01  6.107479559476E-01  6.180769314189E-01  6.254938545960E-01
  6.329997808511E-01  6.405957782213E-01  6.482829275600E-01  6.560623226907E-01
  6.639350705630E-01  6.719022914097E-01  6.799651189067E-01  6.881247003335E-01
  6.963821967375E-01  7.047387830984E-01  7.131956484956E-01  7.217539962775E-01
  7.304150442328E-01  7.391800247636E-01  7.480501850608E-01  7.570267872815E-01
  7.661111087289E-01  7.753044420337E-01  7.846080953381E-01  7.940233924821E-01
  8.035516731919E-01  8.131942932702E-01  8.229526247895E-01  8.328280562869E-01
  8.428219929624E-01  8.529358568779E-01  8.631710871605E-01  8.735291402064E-01
  8.840114898889E-01  8.946196277675E-01  9.053550633007E-01  9.162193240603E-01
  9.272139559491E-01  9.383405234205E-01  9.496006097015E-01  9.609958170179E-01
  9.725277668221E-01  9.841981000240E-01  9.960084772243E-01  1.007960578951E+00
  1.020056105898E+00  1.032296779169E+00  1.044684340519E+00  1.057220552605E+00
  1.069907199237E+00  1.082746085628E+00  1.095739038655E+00  1.108887907119E+00
  1.122194562004E+00  1.135660896748E+00  1.149288827509E+00  1.163080293440E+00
  1.177037256961E+00  1.191161704044E+00  1.205455644493E+00  1.219921112227E+00
  1.234560165573E+00  1.249374887560E+00  1.264367386211E+00  1.279539794846E+00
  1.294894272384E+00  1.310433003652E+00  1.326158199696E+00  1.342072098093E+00
  1.358176963270E+00  1.374475086829E+00  1.390968787871E+00  1.407660413325E+00
  1.424552338285E+00  1.441646966345E+00  1.458946729941E+00  1.476454090700E+00
  1.494171539788E+00  1.512101598266E+00  1.530246817445E+00  1.548609779254E+00
  1.567193096605E+00  1.585999413765E+00  1.605031406730E+00  1.624291783611E+00
  1.643783285014E+00  1.663508684434E+00  1.683470788647E+00  1.703672438111E+00
  1.724116507368E+00  1.744805905457E+00  1.765743576322E+00  1.786932499238E+00
  1.808375689229E+00  1.830076197500E+00  1.852037111870E+00  1.874261557212E+00
  1.896752695899E+00  1.919513728250E+00  1.942547892989E+00  1.965858467705E+00
  1.989448769317E+00  2.013322154549E+00  2.037482020403E+00  2.061931804648E+00
  2.086674986304E+00  2.111715086140E+00  2.137055667173E+00  2.162700335179E+00
  2.188652739202E+00  2.214916572072E+00  2.241495570937E+00  2.268393517788E+00
  2.295614240002E+00  2.323161610882E+00  2.351039550212E+00  2.379252024815E+00
  2.407803049112E+00  2.436696685702E+00  2.465937045930E+00  2.495528290481E+00
  2.525474629967E+00  2.555780325527E+00  2.586449689433E+00  2.617487085706E+00
  2.648896930735E+00  2.680683693904E+00  2.712851898230E+00  2.745406121009E+00
  2.778350994461E+00  2.811691206395E+00  2.845431500872E+00  2.879576678882E+00
  2.914131599029E+00  2.949101178217E+00  2.984490392356E+00  3.020304277064E+00
  3.056547928389E+00  3.093226503529E+00  3.130345221572E+00  3.167909364230E+00
  3.205924276601E+00  3.244395367920E+00  3.283328112335E+00  3.322728049683E+00
  3.362600786280E+00  3.402951995715E+00  3.443787419664E+00  3.485112868700E+00
  3.526934223124E+00  3.569257433801E+00  3.612088523007E+00  3.655433585283E+00
  3.699298788307E+00  3.743690373766E+00  3.788614658251E+00  3.834078034150E+00
  3.880086970560E+00  3.926648014207E+00  3.973767790377E+00  4.021453003862E+00
  4.069710439908E+00  4.118546965187E+00  4.167969528769E+00  4.217985163115E+00
  4.268600985072E+00  4.319824196893E+00  4.371662087256E+00  4.424122032303E+00
  4.477211496690E+00  4.530938034651E+00  4.585309291066E+00  4.640333002559E+00
  4.696016998590E+00  4.752369202573E+00  4.809397633004E+00  4.867110404600E+00
  4.925515729455E+00  4.984621918209E+00  5.044437381227E+00  5.104970629802E+00
  5.166230277360E+00  5.228225040688E+00  5.290963741176E+00  5.354455306070E+00
  5.418708769743E+00  5.483733274980E+00  5.549538074280E+00  5.616132531171E+00
  5.683526121545E+00  5.751728435004E+00  5.820749176224E+00  5.890598166338E+00
  5.961285344334E+00  6.032820768466E+00  6.105214617688E+00  6.178477193100E+00
  6.252618919418E+00  6.327650346451E+00  6.403582150608E+00  6.480425136415E+00
  6.558190238052E+00  6.636888520909E+00  6.716531183160E+00  6.797129557358E+00
  6.878695112046E+00  6.961239453391E+00  7.044774326831E+00  7.129311618753E+00
  7.214863358178E+00  7.301441718476E+00  7.389059019098E+00  7.477727727327E+00
  7.567460460055E+00  7.658269985576E+00  7.750169225403E+00  7.843171256108E+00
  7.937289311181E+00  8.032536782915E+00  8.128927224310E+00  8.226474351002E+00
  8.325192043214E+00  8.425094347732E+00  8.526195479905E+00  8.628509825664E+00
  8.732051943572E+00  8.836836566895E+00  8.942878605698E+00  9.050193148966E+00
  9.158795466753E+00  9.268701012355E+00  9.379925424503E+00  9.492484529597E+00
  9.606394343952E+00  9.721671076079E+00  9.838331128992E+00  9.956391102540E+00
  1.007586779577E+01  1.019677820932E+01  1.031913954783E+01  1.044296922241E+01
  1.056828485307E+01  1.069510427131E+01  1.082344552257E+01  1.095332686884E+01
  1.108476679126E+01  1.121778399276E+01  1.135239740067E+01  1.148862616948E+01
  1.162648968351E+01  1.176600755972E+01  1.190719965043E+01  1.205008604624E+01
  1.219468707879E+01  1.234102332374E+01  1.248911560362E+01  1.263898499087E+01
  1.279065281076E+01  1.294414064449E+01  1.309947033222E+01  1.325666397621E+01
  1.341574394392E+01  1.357673287125E+01  1.373965366570E+01  1.390452950969E+01
  1.407138386381E+01  1.424024047017E+01  1.441112335582E+01  1.458405683609E+01
  1.475906551812E+01  1.493617430434E+01  1.511540839599E+01  1.529679329674E+01
  1.548035481630E+01  1.566611907410E+01  1.585411250299E+01  1.604436185302E+01
  1.623689419526E+01  1.643173692560E+01  1.662891776871E+01  1.682846478193E+01
  1.703040635932E+01  1.723477123563E+01  1.744158849046E+01  1.765088755234E+01
  1.786269820297E+01  1.807705058140E+01  1.829397518838E+01  1.851350289064E+01
  1.873566492533E+01  1.896049290443E+01  1.918801881929E+01  1.941827504512E+01
  1.965129434566E+01  1.988710987781E+01  2.012575519634E+01  2.036726425870E+01
  2.061167142980E+01  2.085901148696E+01  2.110931962480E+01  2.136263146030E+01
  2.161898303782E+01  2.187841083428E+01  2.214095176429E+01  2.240664318546E+01
  2.267552290369E+01  2.294762917853E+01  2.322300072867E+01  2.350167673742E+01
  2.378369685827E+01  2.406910122057E+01  2.435793043521E+01  2.465022560043E+01
  2.494602830764E+01  2.524538064733E+01  2.554832521510E+01  2.585490511768E+01
  2.616516397909E+01  2.647914594684E+01  2.679689569820E+01  2.711845844658E+01
  2.744387994794E+01  2.777320650732E+01  2.810648498540E+01  2.844376280523E+01
  2.878508795889E+01  2.913050901440E+01  2.948007512257E+01  2.983383602404E+01
  3.019184205633E+01  3.055414416101E+01  3.092079389094E+01  3.129184341763E+01
  3.166734553864E+01  3.204735368511E+01  3.243192192933E+01  3.282110499248E+01
  3.321495825239E+01  3.361353775142E+01  3.401690020443E+01  3.442510300689E+01
  3.483820424297E+01  3.525626269389E+01  3.567933784621E+01  3.610748990037E+01
  3.654077977917E+01  3.697926913652E+01  3.742302036616E+01  3.787209661055E+01
  3.832656176988E+01  3.878648051112E+01  3.925191827725E+01  3.972294129658E+01
  4.019961659214E+01  4.068201199124E+01  4.117019613514E+01  4.166423848876E+01
  4.216420935063E+01  4.267017986283E+01  4.318222202119E+01  4.370040868544E+01
  4.422481358967E+01
</grid-data>
</grid>
<valence-charge total-charge="16" is-unscreening-charge="yes"
 rescaled-to-z-pseudo="no">
<radfunc>
<data npts="457">
  1.000875992993E+01  1.001506999342E+01  1.003392982847E+01  1.006538440730E+01
  1.010909606972E+01  1.016653512378E+01  1.023967927507E+01  1.032335136647E+01
  1.041732405391E+01  1.052676693736E+01  1.064994137965E+01  1.078359893184E+01
  1.094481859402E+01  1.111282888842E+01  1.131053746289E+01  1.150745978754E+01
  1.173356163446E+01  1.194722745941E+01  1.218666443369E+01  1.245479153648E+01
  1.275480602516E+01  1.302010978402E+01  1.330996909397E+01  1.362642749755E+01
  1.397164834179E+01  1.434790979470E+01  1.475759608796E+01  1.508828283581E+01
  1.544023578742E+01  1.581454526505E+01  1.621231132216E+01  1.663463447658E+01
  1.708260445977E+01  1.755728669567E+01  1.805970619463E+01  1.859082852062E+01
  1.915153746423E+01  1.974260903123E+01  2.015384667366E+01  2.057901400865E+01
  2.101822001303E+01  2.147152904973E+01  2.193895484706E+01  2.242045398029E+01
  2.291591883777E+01  2.342517005786E+01  2.394794842736E+01  2.448390623837E+01
  2.503259810751E+01  2.559347127098E+01  2.616585537935E+01  2.674895182944E+01
  2.734182268572E+01  2.794337926182E+01  2.855237045339E+01  2.916737093757E+01
  2.978676938114E+01  3.040875683003E+01  3.103131548666E+01  3.165220811870E+01
  3.226896838346E+01  3.287889239520E+01  3.347903190864E+01  3.406618953898E+01
  3.463691648649E+01  3.518751328086E+01  3.571403410383E+01  3.596696759293E+01
  3.621229528827E+01  3.644945924831E+01  3.667788862209E+01  3.689700037340E+01
  3.710620010556E+01  3.730488299160E+01  3.749243481482E+01  3.766823312423E+01
  3.783164850928E+01  3.798204599788E+01  3.811878658131E+01  3.824122886918E+01
  3.834873087700E+01  3.844065194829E+01  3.851635481241E+01  3.857520777845E+01
  3.861658706461E+01  3.863987926142E+01  3.864448392597E+01  3.862981630329E+01
  3.859531016925E+01  3.854042078831E+01  3.846462797766E+01  3.836743926757E+01
  3.824839314630E+01  3.810706237571E+01  3.794305736212E+01  3.775602956487E+01
  3.754567492302E+01  3.731173727867E+01  3.705401177338E+01  3.677234819203E+01
  3.646665422689E+01  3.613689863235E+01  3.578311423953E+01  3.540540079816E+01
  3.500392761179E+01  3.457893593153E+01  3.413074107253E+01  3.365973421692E+01
  3.316638386705E+01  3.265123691309E+01  3.211491927989E+01  3.155813611949E+01
  3.098167151725E+01  3.038638768251E+01  2.977322359737E+01  2.914319310125E+01
  2.849738239291E+01  2.783694693703E+01  2.716310776775E+01  2.647714718791E+01
  2.578040386967E+01  2.507426736908E+01  2.436017207539E+01  2.363959062338E+01
  2.291402680566E+01  2.218500802979E+01  2.145407737377E+01  2.072278530114E+01
  1.999268110468E+01  1.926530415499E+01  1.854217503625E+01  1.782478665725E+01
  1.711459542976E+01  1.641301260966E+01  1.572139589759E+01  1.504104139625E+01
  1.437317601942E+01  1.371895044488E+01  1.307943269794E+01  1.245560244544E+01
  1.184834607156E+01  1.125845259641E+01  1.068661048685E+01  1.013340539591E+01
  9.599318853435E+00  9.084727915991E+00  8.589905769185E+00  8.115023260717E+00
  7.660151328090E+00  7.225264271497E+00  6.810243810561E+00  6.414883853133E+00
  6.038895894898E+00  5.681914961522E+00  5.343506000993E+00  5.023178387601E+00
  4.720418524995E+00  4.434686456570E+00  4.165400561663E+00  3.911946446897E+00
  3.673676235594E+00  3.449921415788E+00  3.240006032526E+00  3.043249689599E+00
  2.858972220035E+00  2.686497928539E+00  2.525159471279E+00  2.374301355708E+00
  2.233283058155E+00  2.101481761291E+00  1.978294716843E+00  1.863141240992E+00
  1.755464350813E+00  1.654732050034E+00  1.560438271647E+00  1.472103483850E+00
  1.389274964788E+00  1.311542179192E+00  1.238584468086E+00  1.170131634188E+00
  1.105914810937E+00  1.045677458716E+00  9.891751919610E-01  9.361755690576E-01
  8.864578493643E-01  8.398127214972E-01  7.960420068336E-01  7.549583419869E-01
  7.163848437929E-01  6.801547601219E-01  6.461111096054E-01  6.141063131300E-01
  5.840018197225E-01  5.556677292148E-01  5.289824138584E-01  5.038321408366E-01
  4.801106974196E-01  4.577190203118E-01  4.365648305608E-01  4.165622752289E-01
  3.976315768742E-01  3.796986917461E-01  3.626949774720E-01  3.465568708904E-01
  3.312255765767E-01  3.166467665061E-01  3.027702912032E-01  2.895499026375E-01
  2.769429890437E-01  2.649103217654E-01  2.534158141510E-01  2.424262924617E-01
  2.319112786913E-01  2.218427851412E-01  2.121951205442E-01  2.029447074862E-01
  1.940699108368E-01  1.855508768660E-01  1.773693826999E-01  1.695086957415E-01
  1.619534426712E-01  1.546894876242E-01  1.477038191381E-01  1.409844454559E-01
  1.345202977708E-01  1.283011410002E-01  1.223174916800E-01  1.165605425792E-01
  1.110220936391E-01  1.056944888554E-01  1.005705587301E-01  9.564356793272E-02
  9.090716782335E-02  8.635535350370E-02  8.198242507499E-02  7.778295279682E-02
  7.375174585460E-02  6.988382445743E-02  6.617439500285E-02  6.261882805852E-02
  5.921263892560E-02  5.595147056184E-02  5.283107865679E-02  4.984731866492E-02
  4.699613461574E-02  4.427354953385E-02  4.167565731436E-02  3.919861591229E-02
  3.683864171691E-02  3.459200499381E-02  3.245502628275E-02  3.042407369053E-02
  2.849556092443E-02  2.666594605950E-02  2.493173093704E-02  2.328946113852E-02
  2.173572647805E-02  2.026716195992E-02  1.888044914997E-02  1.757231791106E-02
  1.633954845256E-02  1.517897364363E-02  1.408748153888E-02  1.306201806365E-02
  1.209958980561E-02  1.119726685848E-02  1.035218566414E-02  9.561551800486E-03
  8.822642664263E-03  8.132810001632E-03  7.489482242812E-03  6.890166602413E-03
  6.332450912495E-03  5.814005161572E-03  5.332582719168E-03  4.886021232040E-03
  4.472243184570E-03  4.089256121951E-03  3.735152540461E-03  3.408109454269E-03
  3.106387652707E-03  2.828330665765E-03  2.572363458688E-03  2.336990878944E-03
  2.120795880580E-03  1.922437552040E-03  1.740648974025E-03  1.574234933935E-03
  1.422069522929E-03  1.283093640733E-03  1.156312432090E-03  1.040792677278E-03
  9.356601573974E-04  8.400970133075E-04  7.533391151758E-04  6.746734576312E-04
  6.034355935713E-04  5.390071177664E-04  4.808132095773E-04  4.283202423879E-04
  3.810334657686E-04  3.384947649389E-04  3.002805008164E-04  2.659994328060E-04
  2.352907255173E-04  2.078220397807E-04  1.832877076627E-04  1.614069906389E-04
  1.419224196655E-04  1.245982155682E-04  1.092187879353E-04  9.558731053992E-05
  8.352437120836E-05  7.286669398725E-05  6.346593142615E-05  5.518752477837E-05
  4.790962991965E-05  4.152210678785E-05  3.592557015227E-05  3.103049952566E-05
  2.675640603430E-05  2.303105406057E-05  1.978973547037E-05  1.697459423290E-05
  1.453399923713E-05  1.242196310600E-05  1.059760481061E-05  9.024653891091E-06
  7.670994101563E-06  6.508244313389E-06  5.511374535255E-06  4.658354940183E-06
  3.929835829072E-06  3.308856507351E-06  2.780581105532E-06  2.332059435432E-06
  1.952011040782E-06  1.630630673220E-06  1.359413501316E-06  1.130998440469E-06
  9.390280742775E-07  7.780237228379E-07  6.432742963963E-07  5.307376705699E-07
  4.369533571906E-07  3.589654689277E-07  2.942547088240E-07  2.406789279347E-07
  1.964206943828E-07  1.599415544151E-07  1.299422672122E-07  1.053281859994E-07
  8.517921102544E-08  6.872378926797E-08  5.531647695389E-08  4.441862736458E-08
  3.558181150553E-08  2.843362199630E-08  2.266554941435E-08  1.802265577672E-08
  1.429480202607E-08  1.130921548616E-08  8.924209461526E-09  7.023890672239E-09
  5.513711235913E-09  4.316740630377E-09  3.370549682585E-09  2.624613316994E-09
  2.038151738927E-09  1.578341070145E-09  1.216615493714E-09  9.369202045501E-10
  7.194522413782E-10  5.508549354309E-10  4.205271356818E-10  3.200793782909E-10
  2.428921200372E-10  1.837579658720E-10  1.385928049492E-10  1.042033017165E-10
  7.810032991002E-11  5.834974165241E-11  4.345337904574E-11  3.225450356893E-11
  2.386287587399E-11  1.759559712000E-11  1.293055042174E-11  9.469881172535E-12
  6.911448419115E-12  5.026583653832E-12  3.642823283709E-12  2.630549311333E-12
  1.892690127291E-12  1.356808777435E-12  9.690471796538E-13  6.895078225397E-13
  4.887447161799E-13  3.451071135034E-13  2.427363476012E-13  1.700609638420E-13
  1.186705576587E-13  8.247630581708E-14  5.708767754197E-14  3.935150396069E-14
  2.701249152609E-14  1.846420437389E-14  1.256716245266E-14  8.516522407821E-15
  5.746233576506E-15  3.859911813632E-15  2.581199321399E-15  1.718273924209E-15
  1.138587242915E-15  7.509644096078E-16  4.929777322098E-16  3.220813961707E-16
  2.094158519102E-16  1.354983243755E-16  8.723953338490E-17  5.588844823264E-17
  3.562329070879E-17  2.259034833127E-17  1.425154841495E-17  8.943848013807E-18
  5.583193443488E-18  3.466643564606E-18  2.140799352301E-18  1.314784781994E-18
  8.030020064141E-19  4.876776261030E-19  2.944922713842E-19  1.768113404729E-19
  1.055386151609E-19  6.262493310778E-20  3.693915417867E-20  2.165704546316E-20
  1.261980006166E-20  7.308273022133E-21  4.205849018931E-21  2.405117956339E-21
  1.366562464981E-21  7.714355231466E-22  0.000000000000E+00  0.000000000000E+00
  0.000000000000E+00  0.000000000000E+00  0.000000000000E+00  0.000000000000E+00
  0.000000000000E+00  0.000000000000E+00  0.000000000000E+00  0.000000000000E+00
  0.000000000000E+00  0.000000000000E+00  0.000000000000E+00  0.000000000000E+00
  0.000000000000E+00
</data>
</radfunc>
</valence-charge>
<pseudocore-charge matching-radius="0.421954997147"
 number-of-continuous-derivatives="4">
<annotation model-charge-form="Teter function with specified parameters" />
<radfunc>
<data npts="290">
  1.132564946762E+02  1.132387606341E+02  1.131857568044E+02  1.130973588392E+02
  1.129745189745E+02  1.128131100859E+02  1.126075816188E+02  1.123724883282E+02
  1.121084755494E+02  1.118010285051E+02  1.114550425370E+02  1.110796517997E+02
  1.106269049176E+02  1.101551487838E+02  1.096000772900E+02  1.090472876422E+02
  1.084126707294E+02  1.078130334517E+02  1.071411474838E+02  1.063888359306E+02
  1.055471380551E+02  1.048028773306E+02  1.039897696199E+02  1.031020678759E+02
  1.021336755702E+02  1.010781543898E+02  9.992874016900E+01  9.900082307307E+01
  9.801304427273E+01  9.696225408375E+01  9.584524709754E+01  9.465878075613E+01
  9.339959777777E+01  9.206445288510E+01  9.065014430503E+01  8.915355051812E+01
  8.757167273256E+01  8.590168353965E+01  8.473811114239E+01  8.353351424636E+01
  8.228725670767E+01  8.099877791493E+01  7.966760306459E+01  7.829335408158E+01
  7.687576117278E+01  7.541467499067E+01  7.391007937286E+01  7.236210460930E+01
  7.077104117389E+01  6.913735383957E+01  6.746169607657E+01  6.574492461222E+01
  6.398811400701E+01  6.219257107608E+01  6.035984895811E+01  5.849176060451E+01
  5.659039143163E+01  5.465811084749E+01  5.269758233326E+01  5.071177172888E+01
  4.870395334256E+01  4.667771347711E+01  4.463695094279E+01  4.258587410853E+01
  4.052899403289E+01  3.847111321418E+01  3.641730950898E+01  3.539359355983E+01
  3.437291479124E+01  3.335597495064E+01  3.234348796301E+01  3.133617875589E+01
  3.033478198544E+01  2.934004066220E+01  2.835270467625E+01  2.737352922167E+01
  2.640327312101E+01  2.544269705093E+01  2.449256167095E+01  2.355362565814E+01
  2.262664365108E+01  2.171236410742E+01  2.081152708050E+01  1.992486192080E+01
  1.905308490971E+01  1.819689683357E+01  1.735698050716E+01  1.653399825689E+01
  1.572858937505E+01  1.494136755729E+01  1.417291833696E+01  1.342379653066E+01
  1.269452371037E+01  1.198558571886E+01  1.129743024535E+01  1.063046447983E+01
  9.985052864788E+00  9.361514963733E+00  8.760123466605E+00  8.181102352170E+00
  7.624625227862E+00  7.090813867390E+00  6.579736966184E+00  6.091409134266E+00
  5.625790145379E+00  5.182784460208E+00  4.762241040250E+00  4.363953467300E+00
  3.987660381654E+00  3.633046249982E+00  3.299742471299E+00  2.987328826760E+00
  2.695335275870E+00  2.423244098446E+00  2.170492378034E+00  1.936474818719E+00
  1.720546883281E+00  1.522028236521E+00  1.340206473392E+00  1.174341107312E+00
  1.023667789856E+00  8.874027289032E-01  7.647472684211E-01  6.548925894139E-01
  5.570244882573E-01  4.703281857941E-01  3.939931182219E-01  3.272176590846E-01
  2.692137206484E-01  2.192111826794E-01  1.764620972144E-01  1.402446193712E-01
  1.098666166334E-01  8.466891237827E-02  6.402812369760E-02  4.735905877568E-02
  3.411664518071E-02  2.379736733231E-02  1.594019902419E-02  1.012702508478E-02
  5.982554895921E-03  3.173739384586E-03  1.408712056079E-03  4.352834327214E-04
  3.902666984590E-05  4.099990474324E-05  2.951578174999E-04  6.855107175368E-04
  1.123094004819E-03  1.542813904940E-03  1.900236792348E-03  2.168389089380E-03
  2.334632605922E-03  2.397676269149E-03  2.364779552385E-03  2.249195680196E-03
  2.067894063563E-03  1.839591667892E-03  1.583112458684E-03  1.316083073866E-03
  1.053961841744E-03  8.093876224520E-04  5.918251221753E-04  4.074747174506E-04
  2.594077947765E-04  1.478834600427E-04  7.079942327043E-05  2.422903926042E-05
  2.997896372015E-06  1.256889208924E-06  1.301416483314E-05  3.259536466816E-05
  5.500976882364E-05  7.620878670623E-05  9.323218413548E-05  1.042459396574E-04
  1.084831557304E-04  1.061055536506E-04  9.800739494056E-05  8.558596757881E-05
  7.050297613967E-05  5.445936622217E-05  3.900254057578E-05  2.537997487864E-05
  1.444741518452E-05  6.633706381424E-06  1.958449859545E-06  9.367009816272E-08
  4.569433868169E-07  2.321327138338E-06  4.927070167087E-06  7.581435313627E-06
  9.735788940888E-06  1.103300594915E-05  1.132268445562E-05  1.064608522023E-05
  9.196546648208E-06  7.263903873218E-06  5.172838303038E-06  3.224976563865E-06
  1.653034611272E-06  5.926569894036E-07  7.428699076475E-08  0.000000000000E+00
  0.000000000000E+00  0.000000000000E+00  0.000000000000E+00  0.000000000000E+00
  0.000000000000E+00  0.000000000000E+00  0.000000000000E+00  0.000000000000E+00
  0.000000000000E+00  0.000000000000E+00  0.000000000000E+00  0.000000000000E+00
  0.000000000000E+00  0.000000000000E+00  0.000000000000E+00  0.000000000000E+00
  0.000000000000E+00  0.000000000000E+00  0.000000000000E+00  0.000000000000E+00
  0.000000000000E+00  0.000000000000E+00  0.000000000000E+00  0.000000000000E+00
  0.000000000000E+00  0.000000000000E+00  0.000000000000E+00  0.000000000000E+00
  0.000000000000E+00  0.000000000000E+00  0.000000000000E+00  0.000000000000E+00
  0.000000000000E+00  0.000000000000E+00  0.000000000000E+00  0.000000000000E+00
  0.000000000000E+00  0.000000000000E+00  0.000000000000E+00  0.000000000000E+00
  0.000000000000E+00  0.000000000000E+00  0.000000000000E+00  0.000000000000E+00
  0.000000000000E+00  0.000000000000E+00  0.000000000000E+00  0.000000000000E+00
  0.000000000000E+00  0.000000000000E+00  0.000000000000E+00  0.000000000000E+00
  0.000000000000E+00  0.000000000000E+00  0.000000000000E+00  0.000000000000E+00
  0.000000000000E+00  0.000000000000E+00  0.000000000000E+00  0.000000000000E+00
  0.000000000000E+00  0.000000000000E+00  0.000000000000E+00  0.000000000000E+00
  0.000000000000E+00  0.000000000000E+00  0.000000000000E+00  0.000000000000E+00
  0.000000000000E+00  0.000000000000E+00  0.000000000000E+00  0.000000000000E+00
  0.000000000000E+00  0.000000000000E+00  0.000000000000E+00  0.000000000000E+00
  0.000000000000E+00  0.000000000000E+00  0.000000000000E+00  0.000000000000E+00
  0.000000000000E+00  0.000000000000E+00  0.000000000000E+00  0.000000000000E+00
  0.000000000000E+00  0.000000000000E+00
</data>
</radfunc>
</pseudocore-charge>
<semilocal-potentials set="scalar_relativistic">
<slps n="3" l="s" rc="1.26436738621" eref="-3.44584974957">
<radfunc>
<data npts="290">
 -1.930760279186E+01 -1.930820650731E+01 -1.931001072084E+01 -1.931301939943E+01
 -1.931719967239E+01 -1.932269129887E+01 -1.932968209612E+01 -1.933767586654E+01
 -1.934664960164E+01 -1.935709513744E+01 -1.936884418269E+01 -1.938158469862E+01
 -1.939694077512E+01 -1.941293002983E+01 -1.943172781942E+01 -1.945043173479E+01
 -1.947188363960E+01 -1.949213256184E+01 -1.951479715233E+01 -1.954014408960E+01
 -1.956846363923E+01 -1.959346993885E+01 -1.962075129890E+01 -1.965048914637E+01
 -1.968287388232E+01 -1.971810402492E+01 -1.975638495256E+01 -1.978722422018E+01
 -1.981998785545E+01 -1.985476601195E+01 -1.989164819640E+01 -1.993072226171E+01
 -1.997207321452E+01 -2.001578181399E+01 -2.006192293692E+01 -2.011056368286E+01
 -2.016176119117E+01 -2.021556014139E+01 -2.025288658372E+01 -2.029138693078E+01
 -2.033106133540E+01 -2.037190532508E+01 -2.041390925839E+01 -2.045705774123E+01
 -2.050132900200E+01 -2.054669422461E+01 -2.059311683854E+01 -2.064055176577E+01
 -2.068894462442E+01 -2.073823088965E+01 -2.078833501287E+01 -2.083916950090E+01
 -2.089063395736E+01 -2.094261408949E+01 -2.099498068460E+01 -2.104758856093E+01
 -2.110027549940E+01 -2.115286116347E+01 -2.120514601594E+01 -2.125691024279E+01
 -2.130791269577E+01 -2.135788986703E+01 -2.140655491079E+01 -2.145359672876E+01
 -2.149867913779E+01 -2.154144014014E+01 -2.158149131854E+01 -2.160037200353E+01
 -2.161841737995E+01 -2.163557129053E+01 -2.165177587387E+01 -2.166697156717E+01
 -2.168109711271E+01 -2.169408956856E+01 -2.170588432351E+01 -2.171641511671E+01
 -2.172561406209E+01 -2.173341167799E+01 -2.173973692219E+01 -2.174451723265E+01
 -2.174767857419E+01 -2.174914549160E+01 -2.174884116921E+01 -2.174668749743E+01
 -2.174260514652E+01 -2.173651364790E+01 -2.172833148329E+01 -2.171797618207E+01
 -2.170536442715E+01 -2.169041216967E+01 -2.167303475290E+01 -2.165314704550E+01
 -2.163066358471E+01 -2.160549872947E+01 -2.157756682395E+01 -2.154678237159E+01
 -2.151306021994E+01 -2.147631575647E+01 -2.143646511538E+01 -2.139342539560E+01
 -2.134711488981E+01 -2.129745332459E+01 -2.124436211138E+01 -2.118776460800E+01
 -2.112758639045E+01 -2.106375553440E+01 -2.099620290577E+01 -2.092486245966E+01
 -2.084967154683E+01 -2.077057122642E+01 -2.068750658414E+01 -2.060042705415E+01
 -2.050928674352E+01 -2.041404475743E+01 -2.031466552336E+01 -2.021111911249E+01
 -2.010338155605E+01 -1.999143515479E+01 -1.987526877894E+01 -1.975487815658E+01
 -1.963026614793E+01 -1.950144300298E+01 -1.936842660001E+01 -1.923124266257E+01
 -1.908992495237E+01 -1.894451543570E+01 -1.879506442144E+01 -1.864163066867E+01
 -1.848428146255E+01 -1.832309265775E+01 -1.815814868948E+01 -1.798954255331E+01
 -1.781737575653E+01 -1.764175824524E+01 -1.746280831411E+01 -1.728065250818E+01
 -1.709542552930E+01 -1.690727016403E+01 -1.671633725403E+01 -1.652278573507E+01
 -1.632678277662E+01 -1.612850405984E+01 -1.592813423823E+01 -1.572586763153E+01
 -1.552190920934E+01 -1.531647592638E+01 -1.510979847471E+01 -1.490212352031E+01
 -1.469371649085E+01 -1.448486497720E+01 -1.427588279985E+01 -1.406711498846E+01
 -1.385894056318E+01 -1.365177986456E+01 -1.344615839484E+01 -1.324270240587E+01