<?xml version="1.0" encoding="UTF-8" ?>
<psml version="1.1" energy_unit="hartree" length_unit="bohr"
 uuid="1b9d0da0-1d65-11e8-4c7d-ad2ffa7f304d"
 xmlns="http://esl.cecam.org/PSML/ns/1.1">
<provenance creator="ONCVPSP-3.3.0+psml-3.3.0-73 (scalar-relativistic)"
 date="2018-03-01">
<annotation action="semilocal-pseudopotential-generation"
 action-cont="projectors-generation" />
<input-file name="oncvpsp-input">
<![CDATA[# atsym z nc nv iexc psfile
Si 14 3 2 -116133 upf
# n l f
1 0 2.0
2 0 2.0
2 1 6.0
3 0 2.0
3 1 2.0
# lmax
2
# l rc ep ncon nbas qcut
0 1.6 0.0 4 9 6.4
1 1.71 0.0 4 9 6.4
2 1.9 0.05 4 9 6.4
# lloc lpopt rc5 dvloc0
4 5 1.6 0.0
# l nproj debl
0 2 2.5
1 2 2.5
2 2 1.5
# icmod fcfact rcfact
3 4.0 1.3
# epsh1 epsh2 depsh
-12.0 12.0 0.02
# rlmax drl
6.0 0.01
 0
]]>
</input-file>
</provenance>
<pseudo-atom-spec atomic-label="Si" atomic-number="14" z-pseudo="4"
 flavor="Hamann&apos;s oncvpsp" relativity="scalar" spin-dft="no"
 core-corrections="yes">
<annotation pseudo-energy="-3.75462265940" />
<exchange-correlation>
<annotation oncvpsp-xc-code="-116133" oncvpsp-xc-type="libxc-interface" />
<libxc-info number-of-functionals="2">
<functional name="Perdew, Burke &amp; Ernzerhof SOL (GGA)" type="exchange"
 id="116" />
<functional name="Perdew, Burke &amp; Ernzerhof SOL (GGA)" type="correlation"
 id="133" />
</libxc-info>
</exchange-correlation>
<valence-configuration total-valence-charge="4">
<shell n="3" l="s" occupation="2" />
<shell n="3" l="p" occupation="2" />
</valence-configuration>
</pseudo-atom-spec>
<grid npts="457">
<annotation type="sampled from oncvpsp log grid"
 recipe="r(i:1..N) = r1*exp(a*(i-1)) + r=0; resampled"
 recipe-cont="r1: scale; a: step" scale="0.357142857143E-04"
 step="0.119285708653E-01" delta="0.500000000000E-02" rmax="44.1697227368" />
<grid-data>
  0.000000000000E+00  5.043762840785E-03  1.007452045417E-02  1.511338716874E-02
  2.012306398724E-02  2.524200484366E-02  3.055005847129E-02  3.567456681735E-02
  4.067657200651E-02  4.582995923277E-02  5.102395083885E-02  5.613299095240E-02
  6.175360044568E-02  6.713142577090E-02  7.297758014932E-02  7.839214240648E-02
  8.420843742015E-02  8.938366768873E-02  9.487695407084E-02  1.007078434632E-01
  1.068970840635E-01  1.121212442685E-01  1.176007140554E-01  1.233479706417E-01
  1.293761010181E-01  1.356988317486E-01  1.423305602273E-01  1.475161931447E-01
  1.528907580013E-01  1.584611382921E-01  1.642344683032E-01  1.702181422495E-01
  1.764198237449E-01  1.828474556171E-01  1.895092700805E-01  1.964137992801E-01
  2.035698862185E-01  2.109866960820E-01  2.160807588722E-01  2.212978127144E-01
  2.266408271046E-01  2.321128432342E-01  2.377169757212E-01  2.434564143831E-01
  2.493344260519E-01  2.553543564345E-01  2.615196320163E-01  2.678337620117E-01
  2.743003403617E-01  2.809230477794E-01  2.877056538450E-01  2.946520191514E-01
  3.017660975018E-01  3.090519381599E-01  3.165136881548E-01  3.241555946416E-01
  3.319820073186E-01  3.399973809033E-01  3.482062776679E-01  3.566133700359E-01
  3.652234432420E-01  3.740413980557E-01  3.830722535703E-01  3.923211500605E-01
  4.017933519076E-01  4.114942505960E-01  4.214293677824E-01  4.264865201958E-01
  4.316043584382E-01  4.367836107394E-01  4.420250140683E-01  4.473293142371E-01
  4.526972660080E-01  4.581296332001E-01  4.636271887985E-01  4.691907150641E-01
  4.748210036448E-01  4.805188556886E-01  4.862850819568E-01  4.921205029403E-01
  4.980259489756E-01  5.040022603633E-01  5.100502874877E-01  5.161708909375E-01
  5.223649416288E-01  5.286333209283E-01  5.349769207794E-01  5.413966438288E-01
  5.478934035547E-01  5.544681243974E-01  5.611217418902E-01  5.678552027928E-01
  5.746694652264E-01  5.815654988091E-01  5.885442847948E-01  5.956068162123E-01
  6.027540980069E-01  6.099871471830E-01  6.173069929492E-01  6.247146768645E-01
  6.322112529869E-01  6.397977880228E-01  6.474753614790E-01  6.552450658168E-01
  6.631080066066E-01  6.710653026859E-01  6.791180863181E-01  6.872675033539E-01
  6.955147133942E-01  7.038608899549E-01  7.123072206343E-01  7.208549072820E-01
  7.295051661693E-01  7.382592281634E-01  7.471183389013E-01  7.560837589681E-01
  7.651567640758E-01  7.743386452447E-01  7.836307089876E-01  7.930342774955E-01
  8.025506888254E-01  8.121812970913E-01  8.219274726564E-01  8.317906023283E-01
  8.417720895562E-01  8.518733546309E-01  8.620958348865E-01  8.724409849051E-01
  8.829102767240E-01  8.935052000447E-01  9.042272624452E-01  9.150779895945E-01
  9.260589254697E-01  9.371716325753E-01  9.484176921662E-01  9.597987044722E-01
  9.713162889259E-01  9.829720843930E-01  9.947677494057E-01  1.006704962399E+00
  1.018785421947E+00  1.031010847011E+00  1.043382977175E+00  1.055903572901E+00
  1.068574415776E+00  1.081397308765E+00  1.094374076470E+00  1.107506565388E+00
  1.120796644173E+00  1.134246203903E+00  1.147857158349E+00  1.161631444250E+00
  1.175571021581E+00  1.189677873840E+00  1.203954008326E+00  1.218401456426E+00
  1.233022273903E+00  1.247818541190E+00  1.262792363684E+00  1.277945872048E+00
  1.293281222513E+00  1.308800597183E+00  1.324506204349E+00  1.340400278801E+00
  1.356485082147E+00  1.372762903132E+00  1.389236057970E+00  1.405906890666E+00
  1.422777773354E+00  1.439851106634E+00  1.457129319914E+00  1.474614871753E+00
  1.492310250214E+00  1.510217973216E+00  1.528340588895E+00  1.546680675961E+00
  1.565240844073E+00  1.584023734202E+00  1.603032019012E+00  1.622268403240E+00
  1.641735624079E+00  1.661436451568E+00  1.681373688987E+00  1.701550173255E+00
  1.721968775334E+00  1.742632400638E+00  1.763543989446E+00  1.784706517319E+00
  1.806122995527E+00  1.827796471473E+00  1.849730029131E+00  1.871926789480E+00
  1.894389910954E+00  1.917122589886E+00  1.940128060964E+00  1.963409597696E+00
  1.986970512868E+00  2.010814159023E+00  2.034943928931E+00  2.059363256078E+00
  2.084075615151E+00  2.109084522533E+00  2.134393536803E+00  2.160006259245E+00
  2.185926334356E+00  2.212157450368E+00  2.238703339772E+00  2.265567779850E+00
  2.292754593208E+00  2.320267648326E+00  2.348110860106E+00  2.376288190428E+00
  2.404803648713E+00  2.433661292497E+00  2.462865228007E+00  2.492419610743E+00
  2.522328646072E+00  2.552596589825E+00  2.583227748903E+00  2.614226481890E+00
  2.645597199672E+00  2.677344366069E+00  2.709472498461E+00  2.741986168443E+00
  2.774890002464E+00  2.808188682494E+00  2.841886946684E+00  2.875989590044E+00
  2.910501465124E+00  2.945427482706E+00  2.980772612498E+00  3.016541883848E+00
  3.052740386455E+00  3.089373271092E+00  3.126445750345E+00  3.163963099349E+00
  3.201930656541E+00  3.240353824420E+00  3.279238070313E+00  3.318588927157E+00
  3.358411994283E+00  3.398712938214E+00  3.439497493473E+00  3.480771463394E+00
  3.522540720955E+00  3.564811209606E+00  3.607588944122E+00  3.650880011451E+00
  3.694690571589E+00  3.739026858448E+00  3.783895180749E+00  3.829301922918E+00
  3.875253545993E+00  3.921756588545E+00  3.968817667608E+00  4.016443479619E+00
  4.064640801374E+00  4.113416490991E+00  4.162777488883E+00  4.212730818749E+00
  4.263283588574E+00  4.314442991637E+00  4.366216307537E+00  4.418610903227E+00
  4.471634234066E+00  4.525293844875E+00  4.579597371013E+00  4.634552539465E+00
  4.690167169939E+00  4.746449175978E+00  4.803406566090E+00  4.861047444883E+00
  4.919380014222E+00  4.978412574392E+00  5.038153525285E+00  5.098611367588E+00
  5.159794703999E+00  5.221712240447E+00  5.284372787333E+00  5.347785260781E+00
  5.411958683910E+00  5.476902188117E+00  5.542625014375E+00  5.609136514547E+00
  5.676446152722E+00  5.744563506554E+00  5.813498268633E+00  5.883260247857E+00
  5.953859370831E+00  6.025305683281E+00  6.097609351480E+00  6.170780663698E+00
  6.244830031662E+00  6.319767992042E+00  6.395605207947E+00  6.472352470442E+00
  6.550020700087E+00  6.628620948488E+00  6.708164399870E+00  6.788662372669E+00
  6.870126321141E+00  6.952567836994E+00  7.035998651038E+00  7.120430634851E+00
  7.205875802469E+00  7.292346312099E+00  7.379854467844E+00  7.468412721458E+00
  7.558033674116E+00  7.648730078205E+00  7.740514839143E+00  7.833401017213E+00
  7.927401829420E+00  8.022530651373E+00  8.118801019189E+00  8.216226631419E+00
  8.314821350996E+00  8.414599207208E+00  8.515574397695E+00  8.617761290467E+00
  8.721174425953E+00  8.825828519064E+00  8.931738461293E+00  9.038919322829E+00
  9.147386354702E+00  9.257154990959E+00  9.368240850850E+00  9.480659741061E+00
  9.594427657953E+00  9.709560789849E+00  9.826075519327E+00  9.943988425559E+00
  1.006331628667E+01  1.018407608211E+01  1.030628499509E+01  1.042996041503E+01
  1.055511994001E+01  1.068178137929E+01  1.080996275584E+01  1.093968230891E+01
  1.107095849662E+01  1.120380999858E+01  1.133825571856E+01  1.147431478719E+01
  1.161200656463E+01  1.175135064341E+01  1.189236685113E+01  1.203507525334E+01
  1.217949615638E+01  1.232565011026E+01  1.247355791158E+01  1.262324060652E+01
  1.277471949380E+01  1.292801612773E+01  1.308315232126E+01  1.324015014911E+01
  1.339903195090E+01  1.355982033431E+01  1.372253817832E+01  1.388720863646E+01
  1.405385514010E+01  1.422250140178E+01  1.439317141861E+01  1.456588947563E+01
  1.474068014934E+01  1.491756831113E+01  1.509657913086E+01  1.527773808043E+01
  1.546107093740E+01  1.564660378865E+01  1.583436303411E+01  1.602437539052E+01
  1.621666789521E+01  1.641126790995E+01  1.660820312487E+01  1.680750156237E+01
  1.700919158111E+01  1.721330188009E+01  1.741986150265E+01  1.762889984068E+01
  1.784044663877E+01  1.805453199843E+01  1.827118638241E+01  1.849044061900E+01
  1.871232590643E+01  1.893687381731E+01  1.916411630312E+01  1.939408569875E+01
  1.962681472714E+01  1.986233650386E+01  2.010068454191E+01  2.034189275641E+01
  2.058599546949E+01  2.083302741512E+01  2.108302374411E+01  2.133602002904E+01
  2.159205226938E+01  2.185115689662E+01  2.211337077938E+01  2.237873122873E+01
  2.264727600347E+01  2.291904331551E+01  2.319407183530E+01  2.347240069732E+01
  2.375406950569E+01  2.403911833976E+01  2.432758775984E+01  2.461951881296E+01
  2.491495303871E+01  2.521393247518E+01  2.551649966488E+01  2.582269766086E+01
  2.613257003279E+01  2.644616087318E+01  2.676351480366E+01  2.708467698130E+01
  2.740969310508E+01  2.773860942234E+01  2.807147273541E+01  2.840833040823E+01
  2.874923037313E+01  2.909422113761E+01  2.944335179126E+01  2.979667201275E+01
  3.015423207691E+01  3.051608286183E+01  3.088227585617E+01  3.125286316645E+01
  3.162789752444E+01  3.200743229474E+01  3.239152148227E+01  3.278021974006E+01
  3.317358237694E+01  3.357166536547E+01  3.397452534985E+01  3.438221965405E+01
  3.479480628990E+01  3.521234396538E+01  3.563489209296E+01  3.606251079808E+01
  3.649526092765E+01  3.693320405879E+01  3.737640250749E+01  3.782491933758E+01
  3.827881836963E+01  3.873816419007E+01  3.920302216035E+01  3.967345842627E+01
  4.014953992739E+01  4.063133440652E+01  4.111891041939E+01  4.161233734443E+01
  4.211168539256E+01  4.261702561727E+01  4.312842992468E+01  4.364597108377E+01
  4.416972273678E+01
</grid-data>
</grid>
<valence-charge total-charge="4" is-unscreening-charge="yes"
 rescaled-to-z-pseudo="no">
<radfunc>
<data npts="457">
  2.543753066135E-02  2.545076995119E-02  2.549035354933E-02  2.555641598328E-02
  2.564831412139E-02  2.576923684038E-02  2.592349388465E-02  2.610032824135E-02
  2.629941094251E-02  2.653190983458E-02  2.679441207731E-02  2.708025988139E-02
  2.742645683602E-02  2.778888409157E-02  2.821755405299E-02  2.864688813487E-02
  2.914279375300E-02  2.961436462285E-02  3.014625861603E-02  3.074627445956E-02
  3.142324102099E-02  3.202689590376E-02  3.269190125031E-02  3.342459053517E-02
  3.423197115148E-02  3.512180004128E-02  3.610266849811E-02  3.690375403627E-02
  3.776577736980E-02  3.869348798352E-02  3.969202167700E-02  4.076693401073E-02
  4.192423682221E-02  4.317043808381E-02  4.451258538717E-02  4.595831334843E-02
  4.751589523219E-02  4.919429908750E-02  5.038512710987E-02  5.163703968996E-02
  5.295328942148E-02  5.433731009031E-02  5.579272687274E-02  5.732336700641E-02
  5.893327092779E-02  6.062670386337E-02  6.240816785325E-02  6.428241417570E-02
  6.625445613007E-02  6.832958212122E-02  7.051336897363E-02  7.281169538487E-02
  7.523075540821E-02  7.777707183135E-02  8.045750929278E-02  8.327928694992E-02
  8.624999048278E-02  8.937758318463E-02  9.267041585728E-02  9.613723519248E-02
  9.978719028526E-02  1.036298368880E-01  1.076751389792E-01  1.119334671861E-01
  1.164155935724E-01  1.211326822720E-01  1.260962754336E-01  1.286742168398E-01
  1.313182739221E-01  1.340299862217E-01  1.368109122185E-01  1.396626281897E-01
  1.425867269569E-01  1.455848165155E-01  1.486585185437E-01  1.518094667870E-01
  1.550393053121E-01  1.583496866290E-01  1.617422696745E-01  1.652187176545E-01
  1.687806957398E-01  1.724298686115E-01  1.761678978506E-01  1.799964391673E-01
  1.839171394639E-01  1.879316337248E-01  1.920415417280E-01  1.962484645682E-01
  2.005539809845E-01  2.049596434810E-01  2.094669742303E-01  2.140774607437E-01
  2.187925512960E-01  2.236136500845E-01  2.285421121033E-01  2.335792377098E-01
  2.387262668573E-01  2.439843729646E-01  2.493546563898E-01  2.548381374730E-01
  2.604357491061E-01  2.661483287887E-01  2.719766101208E-01  2.779212136826E-01
  2.839826372480E-01  2.901612452736E-01  2.964572576074E-01  3.028707373552E-01
  3.094015778462E-01  3.160494886396E-01  3.228139805155E-01  3.296943494008E-01
  3.366896591853E-01  3.437987233945E-01  3.510200856964E-01  3.583519992358E-01
  3.657924048100E-01  3.733389079170E-01  3.809887547410E-01  3.887388071625E-01
  3.965855169187E-01  4.045248990771E-01  4.125525050232E-01  4.206633952102E-01
  4.288521119647E-01  4.371126526870E-01  4.454384438381E-01  4.538223161486E-01
  4.622564815323E-01  4.707325122272E-01  4.792413227229E-01  4.877731550570E-01
  4.963175680828E-01  5.048634313099E-01  5.133989239061E-01  5.219115394212E-01
  5.303880967370E-01  5.388147576781E-01  5.471770516188E-01  5.554599073026E-01
  5.636476919441E-01  5.717242575183E-01  5.796729939553E-01  5.874768887550E-01
  5.951185923250E-01  6.025804881289E-01  6.098447665186E-01  6.168935009339E-01
  6.237087249774E-01  6.302725087473E-01  6.365670327324E-01  6.425746575586E-01
  6.482779879445E-01  6.536599293791E-01  6.587037362823E-01  6.633930507742E-01
  6.677119316327E-01  6.716448735897E-01  6.751768177669E-01  6.782931547836E-01
  6.809797228461E-01  6.832228039242E-01  6.850091218849E-01  6.863258471535E-01
  6.871606130357E-01  6.875015492145E-01  6.873373380733E-01  6.866572993212E-01
  6.854515078816E-01  6.837109490816E-01  6.814277138582E-01  6.785952349533E-01
  6.752085629457E-01  6.712646785258E-01  6.667628347479E-01  6.617049202297E-01
  6.560958315762E-01  6.499438408718E-01  6.432609421144E-01  6.360629454539E-01
  6.283686230687E-01  6.201982926201E-01  6.115736686789E-01  6.025182631790E-01
  5.930573419913E-01  5.832178748630E-01  5.730278983488E-01  5.625155380564E-01
  5.517087603460E-01  5.406354589003E-01  5.293232968443E-01  5.177996434853E-01
  5.060914999786E-01  4.942254299163E-01  4.822274936049E-01  4.701231861431E-01
  4.579373794306E-01  4.456942682261E-01  4.334173203621E-01  4.211292312089E-01
  4.088518824619E-01  3.966063053059E-01  3.844126479892E-01  3.722901478150E-01
  3.602571075362E-01  3.483308761152E-01  3.365278337873E-01  3.248633813441E-01
  3.133519335317E-01  3.020069164396E-01  2.908407687362E-01  2.798649465927E-01
  2.690899321181E-01  2.585252451209E-01  2.481794579958E-01  2.380602135291E-01
  2.281742454068E-01  2.185274012050E-01  2.091246676370E-01  1.999701978324E-01
  1.910673404199E-01  1.824186701893E-01  1.740260201091E-01  1.658905144812E-01
  1.580126030230E-01  1.503920956528E-01  1.430281978102E-01  1.359195460902E-01
  1.290642440227E-01  1.224598978213E-01  1.161036519405E-01  1.099922242871E-01
  1.041219409475E-01  9.848877030002E-02  9.308835639487E-02  8.791605149526E-02
  8.296694768541E-02  7.823590746213E-02  7.371759323823E-02  6.940649569741E-02
  6.529696095100E-02  6.138321645756E-02  5.765939567632E-02  5.411956143531E-02
  5.075772800099E-02  4.756788186289E-02  4.454400120849E-02  4.168007413197E-02
  3.897011558105E-02  3.640818306925E-02  3.398839118303E-02  3.170492491635E-02
  2.955205186853E-02  2.752413334313E-02  2.561563438679E-02  2.382113280809E-02
  2.213532721605E-02  2.055304411810E-02  1.906924411645E-02  1.767902724111E-02
  1.637763745692E-02  1.516046638112E-02  1.402305624714E-02  1.296110214991E-02
  1.197045360757E-02  1.104711547416E-02  1.018724823834E-02  9.387167743126E-03
  8.643344362306E-03  7.952401669598E-03  7.311114637280E-03  6.716407401465E-03
  6.165350631658E-03  5.655158542506E-03  5.183185585717E-03  4.746922859953E-03
  4.343994276092E-03  3.972152514563E-03  3.629274810469E-03  3.313358601029E-03
  3.022517068381E-03  2.754974609136E-03  2.509062260202E-03  2.283213108399E-03
  2.075957709288E-03  1.885919538416E-03  1.711810495991E-03  1.552426483708E-03
  1.406643070284E-03  1.273411260040E-03  1.151753376802E-03  1.040759073337E-03
  9.395814746694E-04  8.474334617984E-04  7.635841006619E-04  6.873552196669E-04
  6.181181376785E-04  5.552905430892E-04  4.983335234525E-04  4.467487441514E-04
  4.000757736960E-04  3.578895524942E-04  3.197980013006E-04  2.854397650381E-04
  2.544820872682E-04  2.266188102789E-04  2.015684955378E-04  1.790726591209E-04
  1.588941166628E-04  1.408154323803E-04  1.246374667726E-04  1.101780177124E-04
  9.727054977933E-05  8.576300686274E-05  7.551670325521E-05  6.640528866681E-05
  5.831378281098E-05  5.113767543516E-05  4.478208789163E-05  3.916099256232E-05
  3.419648666209E-05  2.981811714641E-05  2.596225364060E-05  2.257150648705E-05
  1.959418717419E-05  1.698380856735E-05  1.469862250555E-05  1.270119246249E-05
  1.095799909361E-05  9.439076606097E-06  8.117677995587E-06  6.969967292798E-06
  5.974737057035E-06  5.113149441434E-06  4.368499238323E-06  3.725997392544E-06
  3.172573546629E-06  2.696696254883E-06  2.288209573979E-06  1.938184805973E-06
  1.638786235931E-06  1.383149770652E-06  1.165273447575E-06  9.799188436614E-07
  8.225224730700E-07  6.891163196650E-07  5.762567057460E-07  4.809607519142E-07
  4.006497345269E-07  3.330986967441E-07  2.763917166483E-07  2.288822812900E-07
  1.891582587203E-07  1.560110011011E-07  1.284081508131E-07  1.054697581056E-07
  8.644735326536E-08  7.070564855021E-08  5.770657526332E-08  4.699538939663E-08
  3.818860529381E-08  3.096354084848E-08  2.504927993297E-08  2.021887813034E-08
  1.628265650166E-08  1.308244515335E-08  1.048665386633E-08  8.386061104749E-09
  6.690225430181E-09  5.324434800183E-09  4.227119520862E-09  3.347663839205E-09
  2.644559390081E-09  2.083851037408E-09  1.637832148327E-09  1.283952088687E-09
  1.003903798312E-09  7.828637621024E-10  6.088605997971E-10  4.722519107788E-10
  3.652919836942E-10  2.817755626230E-10  2.167450966712E-10  1.662508287577E-10
  1.271547387902E-10  9.697077957511E-11  7.373506048529E-11  5.590067080913E-11
  4.225271557937E-11  3.183988264068E-11  2.391948939471E-11  1.791348748135E-11
  1.337334800595E-11  9.952121378322E-12  7.382275329182E-12  5.458171694478E-12
  4.022255294233E-12  2.954203719770E-12  2.162431114046E-12  1.577457232090E-12
  1.146749579175E-12  8.307249503679E-13  5.996603639076E-13  4.313148207875E-13
  3.091047344041E-13  2.207090919489E-13  1.570069576085E-13  1.112710675831E-13
  7.855803772690E-14  5.524895930289E-14  3.870459438488E-14  2.700756772045E-14
  1.877034695608E-14  1.299277998474E-14  8.956816000005E-15  6.149015276285E-15
  4.203742663628E-15  2.861695336467E-15  1.939747192695E-15  1.309118106170E-15
  8.796334007538E-16  5.884244674409E-16  3.918524125097E-16  2.597607272755E-16
  1.714035069212E-16  1.125736999315E-16  7.358692774838E-17  4.787249289053E-17
  3.099330275808E-17  1.996735546676E-17  1.280024059948E-17  8.164585551461E-18
  5.181333302324E-18  3.271240499667E-18  2.054557109131E-18  1.283595664708E-18
  0.000000000000E+00  0.000000000000E+00  0.000000000000E+00  0.000000000000E+00
  0.000000000000E+00  0.000000000000E+00  0.000000000000E+00  0.000000000000E+00
  0.000000000000E+00  0.000000000000E+00  0.000000000000E+00  0.000000000000E+00
  0.000000000000E+00  0.000000000000E+00  0.000000000000E+00  0.000000000000E+00
  0.000000000000E+00  0.000000000000E+00  0.000000000000E+00  0.000000000000E+00
  0.000000000000E+00
</data>
</radfunc>
</valence-charge>
<pseudocore-charge matching-radius="1.18967787384"
 number-of-continuous-derivatives="4">
<annotation model-charge-form="Teter function with specified parameters" />
<radfunc>
<data npts="290">
  2.833118557246E+00  2.833023357379E+00  2.832738756893E+00  2.832263891843E+00
  2.831603554876E+00  2.830735083254E+00  2.829627899399E+00  2.828359625598E+00
  2.826933009208E+00  2.825268574071E+00  2.823391468506E+00  2.821349976469E+00
  2.818881035025E+00  2.816300511214E+00  2.813253817997E+00  2.810208347299E+00
  2.806698031513E+00  2.803367283954E+00  2.799618992500E+00  2.795401445913E+00
  2.790656698845E+00  2.786437966671E+00  2.781803710778E+00  2.776713763184E+00
  2.771124232342E+00  2.764987191731E+00  2.758250349760E+00  2.752769994068E+00
  2.746894382823E+00  2.740595913506E+00  2.733845195016E+00  2.726610953500E+00
  2.718859936805E+00  2.710556818233E+00  2.701664100440E+00  2.692142020490E+00
  2.681948457294E+00  2.671038842877E+00  2.663344808533E+00  2.655297054863E+00
  2.646880462538E+00  2.638079380504E+00  2.628877619269E+00  2.619258445568E+00
  2.609204578623E+00  2.598698188212E+00  2.587720894808E+00  2.576253772050E+00
  2.564277351831E+00  2.551771632343E+00  2.538716089392E+00  2.525089691376E+00
  2.510870918313E+00  2.496037785348E+00  2.480567871189E+00  2.464438351972E+00
  2.447626041047E+00  2.430107435254E+00  2.411858768250E+00  2.392856071487E+00
  2.373075243485E+00  2.352492128031E+00  2.331082601998E+00  2.308822673450E+00
  2.285688590761E+00  2.261656963419E+00  2.236704895242E+00  2.223876711676E+00
  2.210810130676E+00  2.197502496650E+00  2.183951214832E+00  2.170153757078E+00
  2.156107667899E+00  2.141810570733E+00  2.127260174472E+00  2.112454280220E+00
  2.097390788316E+00  2.082067705600E+00  2.066483152933E+00  2.050635372979E+00
  2.034522738229E+00  2.018143759288E+00  2.001497093410E+00  1.984581553282E+00
  1.967396116058E+00  1.949939932631E+00  1.932212337144E+00  1.914212856729E+00
  1.895941221471E+00  1.877397374581E+00  1.858581482775E+00  1.839493946839E+00
  1.820135412372E+00  1.800506780687E+00  1.780609219857E+00  1.760444175884E+00
  1.740013383966E+00  1.719318879845E+00  1.698363011206E+00  1.677148449100E+00
  1.655678199359E+00  1.633955613971E+00  1.611984402379E+00  1.589768642665E+00
  1.567312792577E+00  1.544621700357E+00  1.521700615319E+00  1.498555198131E+00
  1.475191530743E+00  1.451616125914E+00  1.427835936260E+00  1.403858362786E+00
  1.379691262812E+00  1.355342957243E+00  1.330822237100E+00  1.306138369242E+00
  1.281301101200E+00  1.256320665052E+00  1.231207780237E+00  1.205973655248E+00
  1.180629988101E+00  1.155188965495E+00  1.129663260582E+00  1.104066029245E+00
  1.078410904805E+00  1.052711991056E+00  1.026983853545E+00  1.001241509012E+00
  9.755004128857E-01  9.497764447754E-01  9.240858918560E-01  8.984454300828E-01
  8.728721031591E-01  8.473832991918E-01  8.219967249757E-01  7.967303778574E-01
  7.716025151353E-01  7.466316209670E-01  7.218363707623E-01  6.972355930566E-01
  6.728482288728E-01  6.486932885924E-01  6.247898063779E-01  6.011567922024E-01
  5.778131815643E-01  5.547777829837E-01  5.320692234007E-01  5.097058916166E-01
  4.877058799438E-01  4.660869242564E-01  4.448663426553E-01  4.240609729921E-01
  4.036871095193E-01  3.837604389629E-01  3.642959763391E-01  3.453080008638E-01
  3.268099923292E-01  3.088145683451E-01  2.913334228688E-01  2.743772664653E-01
  2.579557687612E-01  2.420775035722E-01  2.267498971965E-01  2.119791803766E-01
  1.977703444402E-01  1.841271021276E-01  1.710518536133E-01  1.585456582192E-01
  1.466082122990E-01  1.352378337559E-01  1.244314536230E-01  1.141846151028E-01
  1.044914804194E-01  9.534484578304E-02  8.673616471423E-02  7.865557990370E-02
  7.109196371515E-02  6.403296735620E-02  5.746507865737E-02  5.137368830600E-02
  4.574316428537E-02  4.055693416735E-02  3.579757480290E-02  3.144690884893E-02
  2.748610746420E-02  2.389579840275E-02  2.065617863312E-02  1.774713051650E-02
  1.514834048981E-02  1.283941912213E-02  1.080002134785E-02  9.009965628387E-03
  7.449350759624E-03  6.098669025556E-03  4.938914402175E-03  3.951684540502E-03
  3.119275305518E-03  2.424766718918E-03  1.852099248720E-03  1.386139507314E-03
  1.012734560925E-03  7.187542160961E-04  4.921208305675E-04  3.218263941202E-04
  1.979368359452E-04  1.115837349354E-04  5.494383315538E-05  2.120697548830E-05
  4.533314468449E-06  8.227361921429E-10  3.544340465787E-06  1.188754567530E-05
  2.246936600779E-05  3.336644637883E-05  4.321334358366E-05  5.112213329857E-05
  5.660308484387E-05  5.948798392822E-05  5.985756422917E-05  5.797434757182E-05
  5.422199380779E-05  4.905203106581E-05  4.293858216401E-05  3.634143229200E-05
  2.967750628900E-05  2.330055135246E-05  1.748856346054E-05  1.243826360522E-05
  8.265732785775E-06  5.012161000119E-06  2.653561799950E-06  1.113254703566E-06
  2.759246352403E-07  2.129471302665E-09  1.422396619662E-07  5.489508399383E-07
  1.087701805685E-06  1.644544650167E-06  2.131237908407E-06  2.487553707315E-06
  2.680992260464E-06  2.704269305595E-06  2.571073792160E-06  2.310676829099E-06
  1.962004682756E-06  1.567768525002E-06  1.169175795700E-06  8.016404133702E-07
  4.917728323595E-07  2.557796136238E-07  9.925039817794E-08  1.817238411474E-08
  9.014367627589E-10  3.074472219284E-08  8.877819154538E-08  1.565346516312E-07
  2.182509842328E-07  2.624482733676E-07  2.827245103887E-07  2.777522703162E-07
  2.505788387708E-07  2.074105487205E-07  1.561164056272E-07  1.047026875389E-07
  5.998958244764E-08  2.666788592564E-08  6.837808126124E-09  4.577068455318E-11
  0.000000000000E+00  0.000000000000E+00  0.000000000000E+00  0.000000000000E+00
  0.000000000000E+00  0.000000000000E+00  0.000000000000E+00  0.000000000000E+00
  0.000000000000E+00  0.000000000000E+00  0.000000000000E+00  0.000000000000E+00
  0.000000000000E+00  0.000000000000E+00  0.000000000000E+00  0.000000000000E+00
  0.000000000000E+00  0.000000000000E+00  0.000000000000E+00  0.000000000000E+00
  0.000000000000E+00  0.000000000000E+00
</data>
</radfunc>
</pseudocore-charge>
<semilocal-potentials set="scalar_relativistic">
<slps n="3" l="s" rc="1.60303201901" eref="-0.395742125032">
<radfunc>
<data npts="290">
  1.212184536371E+01  1.212015963977E+01  1.211512074487E+01  1.210671512042E+01
  1.209503047023E+01  1.207967004124E+01  1.206009942539E+01  1.203769780143E+01
  1.201252046003E+01  1.198317447905E+01  1.195011594834E+01  1.191420738315E+01
  1.187084362051E+01  1.182559505061E+01  1.177227227733E+01  1.171908043028E+01
  1.165790739020E+01  1.160000187104E+01  1.153500054823E+01  1.146207126737E+01
  1.138029516851E+01  1.130782822948E+01  1.122849148435E+01  1.114168120196E+01
  1.104675154066E+01  1.094301427505E+01  1.082973930431E+01  1.073806192357E+01
  1.064024788220E+01  1.053594713925E+01  1.042480000479E+01  1.030643881639E+01
  1.018049004426E+01  1.004657688152E+01  9.904322377885E+00  9.753353175463E+00
  9.593303903754E+00  9.423822286413E+00  9.305428772191E+00  9.182601702763E+00
  9.055254352050E+00  8.923307038616E+00  8.786688231327E+00  8.645335722672E+00
  8.499197866027E+00  8.348234871570E+00  8.192420153721E+00  8.031741721011E+00
  7.866203597029E+00  7.695827258734E+00  7.520653075821E+00  7.340741732128E+00
  7.156175607219E+00  6.967060093374E+00  6.773524820298E+00  6.575724756976E+00
  6.373841157343E+00  6.168082313945E+00  5.958684081512E+00  5.745910130633E+00
  5.530051890547E+00  5.311428139565E+00  5.090384202114E+00  4.867290712846E+00
  4.642541911026E+00  4.416553432584E+00  4.189759573114E+00  4.076200648106E+00
  3.962610002811E+00  3.849045617897E+00  3.735565924243E+00  3.622229652762E+00
  3.509095676015E+00  3.396222841946E+00  3.283669800115E+00  3.171494820894E+00
  3.059755608203E+00  2.948509106436E+00  2.837811302338E+00  2.727717022701E+00
  2.618279728869E+00  2.509551309127E+00  2.401581870216E+00  2.294419529301E+00
  2.188110207869E+00  2.082697429146E+00  1.978222120777E+00  1.874722424600E+00
  1.772233515513E+00  1.670787431526E+00  1.570412917202E+00  1.471135282816E+00
  1.372976281619E+00  1.275954007705E+00  1.180082816998E+00  1.085373273924E+00
  9.918321263511E-01  8.994623113203E-01  8.082629940533E-01  7.182296426007E-01
  6.293541403523E-01  5.416249384193E-01  4.550272496439E-01  3.695432856716E-01
  2.851525381338E-01  2.018321045375E-01  1.195570589362E-01  3.830086685707E-02
 -4.196415670768E-02 -1.212663481839E-01 -1.996341579168E-01 -2.770955779175E-01
 -3.536775394137E-01 -4.294052857476E-01 -5.043017271860E-01 -5.783867852448E-01
 -6.516767351935E-01 -7.241835564083E-01 -7.959143012502E-01 -8.668704940903E-01
 -9.370475728695E-01 -1.006434386334E+00 -1.075012760618E+00 -1.142757149157E+00
 -1.209634380056E+00 -1.275603514842E+00 -1.340615832108E+00 -1.404614948708E+00
 -1.467537090000E+00 -1.529311519067E+00 -1.589861132834E+00 -1.649103230549E+00
 -1.706950457204E+00 -1.763311921089E+00 -1.818094480885E+00 -1.871204193384E+00
 -1.922547908277E+00 -1.972034991391E+00 -2.019579152331E+00 -2.065100346909E+00
 -2.108526718939E+00 -2.149796540175E+00 -2.188860101548E+00 -2.225681503454E+00
 -2.260240288089E+00 -2.292532852767E+00 -2.322573580237E+00 -2.350395620455E+00
 -2.376051258490E+00 -2.399611805532E+00 -2.421166954746E+00 -2.440823551313E+00
 -2.458703736676E+00 -2.474942441059E+00 -2.489684215828E+00 -2.503079418263E+00
 -2.515279785597E+00 -2.526433462426E+00 -2.536679575184E+00 -2.546142478509E+00