<?xml version="1.0" encoding="UTF-8" ?>
<psml version="1.1" energy_unit="hartree" length_unit="bohr"
 uuid="55a59ee0-1d65-11e8-5d7e-bfbadef967d8"
 xmlns="http://esl.cecam.org/PSML/ns/1.1">
<provenance creator="ONCVPSP-3.3.0+psml-3.3.0-73 (scalar-relativistic)"
 date="2018-03-01">
<annotation action="semilocal-pseudopotential-generation"
 action-cont="projectors-generation" />
<input-file name="oncvpsp-input">
<![CDATA[# atsym z nc nv iexc psfile
Cr 24 3 4 -116133 upf
# n l f
1 0 2.0
2 0 2.0
2 1 6.0
3 0 2.0
3 1 6.0
3 2 5.0
4 0 1.0
# lmax
2
# l rc ep ncon nbas qcut
0 1.1 0.0 4 8 10.8
1 1.1 0.0 4 7 11.0
2 1.4 0.0 4 8 11.0
# lloc lpopt rc5 dvloc0
4 5 1.1 0.0
# l nproj debl
0 2 1.0
1 2 1.0
2 2 1.0
# icmod fcfact
3 4.5 1.6
# epsh1 epsh2 depsh
-18.0 12.0 0.02
# rlmax drl
6.0 0.01
 0
]]>
</input-file>
</provenance>
<pseudo-atom-spec atomic-label="Cr" atomic-number="24" z-pseudo="14"
 flavor="Hamann&apos;s oncvpsp" relativity="scalar" spin-dft="no"
 core-corrections="yes">
<annotation pseudo-energy="-86.4961672419" />
<exchange-correlation>
<annotation oncvpsp-xc-code="-116133" oncvpsp-xc-type="libxc-interface" />
<libxc-info number-of-functionals="2">
<functional name="Perdew, Burke &amp; Ernzerhof SOL (GGA)" type="exchange"
 id="116" />
<functional name="Perdew, Burke &amp; Ernzerhof SOL (GGA)" type="correlation"
 id="133" />
</libxc-info>
</exchange-correlation>
<valence-configuration total-valence-charge="14">
<shell n="3" l="s" occupation="2" />
<shell n="3" l="p" occupation="6" />
<shell n="3" l="d" occupation="5" />
<shell n="4" l="s" occupation="1" />
</valence-configuration>
</pseudo-atom-spec>
<grid npts="457">
<annotation type="sampled from oncvpsp log grid"
 recipe="r(i:1..N) = r1*exp(a*(i-1)) + r=0; resampled"
 recipe-cont="r1: scale; a: step" scale="0.208333333333E-04"
 step="0.119285708653E-01" delta="0.500000000000E-02" rmax="44.0721796572" />
<grid-data>
  0.000000000000E+00  5.032624347497E-03  1.005227218795E-02  1.508001122169E-02
  2.031956831929E-02  2.548849629768E-02  3.084838375803E-02  3.602293359331E-02
  4.107378401246E-02  4.627749473396E-02  5.152220634232E-02  5.668113689579E-02
  6.235663237039E-02  6.778697285802E-02  7.281641866882E-02  7.821902357048E-02
  8.402247405418E-02  8.918627550078E-02  9.466743067541E-02  1.004854433080E-01
  1.066610157766E-01  1.118736391042E-01  1.173410081958E-01  1.230755727145E-01
  1.290903907501E-01  1.353991585533E-01  1.420162417235E-01  1.471904228460E-01
  1.525531186762E-01  1.581111975076E-01  1.638717778713E-01  1.698422376531E-01
  1.760302235427E-01  1.824436608270E-01  1.890907635409E-01  1.959800449871E-01
  2.031203286396E-01  2.105207594445E-01  2.156035726605E-01  2.208091053189E-01
  2.261403203577E-01  2.316002522524E-01  2.371920087428E-01  2.429187726019E-01
  2.487838034476E-01  2.547904395980E-01  2.609420999717E-01  2.672422860334E-01
  2.736945837874E-01  2.803026658183E-01  2.870702933818E-01  2.940013185453E-01
  3.010996863802E-01  3.083694372082E-01  3.158147089001E-01  3.234397392318E-01
  3.312488682958E-01  3.392465409720E-01  3.474373094572E-01  3.558258358567E-01
  3.644168948376E-01  3.732153763466E-01  3.822262883931E-01  3.914547599001E-01
  4.009060436231E-01  4.105855191403E-01  4.204986959145E-01  4.255446802654E-01
  4.306512164286E-01  4.358190310258E-01  4.410488593981E-01  4.463414457109E-01
  4.516975430594E-01  4.571179135761E-01  4.626033285390E-01  4.681545684815E-01
  4.737724233033E-01  4.794576923829E-01  4.852111846915E-01  4.910337189078E-01
  4.969261235347E-01  5.028892370171E-01  5.089239078613E-01  5.150309947556E-01
  5.212113666927E-01  5.274659030930E-01  5.337954939301E-01  5.402010398573E-01
  5.466834523356E-01  5.532436537636E-01  5.598825776088E-01  5.666011685401E-01
  5.734003825626E-01  5.802811871533E-01  5.872445613992E-01  5.942914961360E-01
  6.014229940896E-01  6.086400700187E-01  6.159437508589E-01  6.233350758692E-01
  6.308150967796E-01  6.383848779410E-01  6.460454964763E-01  6.537980424340E-01
  6.616436189432E-01  6.695833423705E-01  6.776183424790E-01  6.857497625887E-01
  6.939787597398E-01  7.023065048566E-01  7.107341829149E-01  7.192629931099E-01
  7.278941490272E-01  7.366288788155E-01  7.454684253613E-01  7.544140464657E-01
  7.634670150233E-01  7.726286192035E-01  7.819001626340E-01  7.912829645856E-01
  8.007783601606E-01  8.103877004825E-01  8.201123528883E-01  8.299537011230E-01
  8.399131455365E-01  8.499921032829E-01  8.601920085223E-01  8.705143126246E-01
  8.809604843761E-01  8.915320101886E-01  9.022303943108E-01  9.130571590426E-01
  9.240138449511E-01  9.351020110905E-01  9.463232352236E-01  9.576791140463E-01
  9.691712634148E-01  9.808013185758E-01  9.925709343987E-01  1.004481785611E+00
  1.016535567039E+00  1.028733993843E+00  1.041078801769E+00  1.053571747391E+00
  1.066214608359E+00  1.079009183660E+00  1.091957293864E+00  1.105060781390E+00
  1.118321510767E+00  1.131741368896E+00  1.145322265323E+00  1.159066132506E+00
  1.172974926096E+00  1.187050625210E+00  1.201295232712E+00  1.215710775505E+00
  1.230299304811E+00  1.245062896469E+00  1.260003651226E+00  1.275123695041E+00
  1.290425179381E+00  1.305910281534E+00  1.321581204912E+00  1.337440179371E+00
  1.353489461524E+00  1.369731335062E+00  1.386168111083E+00  1.402802128416E+00
  1.419635753957E+00  1.436671383004E+00  1.453911439600E+00  1.471358376875E+00
  1.489014677398E+00  1.506882853527E+00  1.524965447769E+00  1.543265033142E+00
  1.561784213540E+00  1.580525624102E+00  1.599491931592E+00  1.618685834771E+00
  1.638110064788E+00  1.657767385566E+00  1.677660594192E+00  1.697792521323E+00
  1.718166031578E+00  1.738784023957E+00  1.759649432245E+00  1.780765225432E+00
  1.802134408137E+00  1.823760021035E+00  1.845645141287E+00  1.867792882983E+00
  1.890206397578E+00  1.912888874349E+00  1.935843540841E+00  1.959073663332E+00
  1.982582547292E+00  2.006373537859E+00  2.030450020313E+00  2.054815420557E+00
  2.079473205604E+00  2.104426884071E+00  2.129680006680E+00  2.155236166760E+00
  2.181099000761E+00  2.207272188770E+00  2.233759455036E+00  2.260564568496E+00
  2.287691343318E+00  2.315143639438E+00  2.342925363111E+00  2.371040467468E+00
  2.399492953078E+00  2.428286868515E+00  2.457426310937E+00  2.486915426668E+00
  2.516758411788E+00  2.546959512730E+00  2.577523026883E+00  2.608453303205E+00
  2.639754742844E+00  2.671431799758E+00  2.703488981355E+00  2.735930849131E+00
  2.768762019321E+00  2.801987163552E+00  2.835611009515E+00  2.869638341629E+00
  2.904074001729E+00  2.938922889750E+00  2.974189964427E+00  3.009880244000E+00
  3.045998806928E+00  3.082550792611E+00  3.119541402122E+00  3.156975898948E+00
  3.194859609735E+00  3.233197925052E+00  3.271996300152E+00  3.311260255754E+00
  3.350995378823E+00  3.391207323369E+00  3.431901811250E+00  3.473084632985E+00
  3.514761648580E+00  3.556938788363E+00  3.599622053824E+00  3.642817518470E+00
  3.686531328691E+00  3.730769704636E+00  3.775538941091E+00  3.820845408384E+00
  3.866695553285E+00  3.913095899924E+00  3.960053050723E+00  4.007573687332E+00
  4.055664571580E+00  4.104332546439E+00  4.153584536996E+00  4.203427551440E+00
  4.253868682058E+00  4.304915106242E+00  4.356574087517E+00  4.408852976567E+00
  4.461759212286E+00  4.515300322834E+00  4.569483926708E+00  4.624317733828E+00
  4.679809546634E+00  4.735967261194E+00  4.792798868328E+00  4.850312454748E+00
  4.908516204205E+00  4.967418398655E+00  5.027027419439E+00  5.087351748472E+00
  5.148399969454E+00  5.210180769088E+00  5.272702938317E+00  5.335975373576E+00
  5.400007078059E+00  5.464807162996E+00  5.530384848952E+00  5.596749467139E+00
  5.663910460745E+00  5.731877386274E+00  5.800659914909E+00  5.870267833888E+00
  5.940711047895E+00  6.011999580470E+00  6.084143575435E+00  6.157153298341E+00
  6.231039137921E+00  6.305811607576E+00  6.381481346867E+00  6.458059123029E+00
  6.535555832505E+00  6.613982502495E+00  6.693350292525E+00  6.773670496036E+00
  6.854954541988E+00  6.937213996492E+00  7.020460564450E+00  7.104706091223E+00
  7.189962564318E+00  7.276242115090E+00  7.363557020471E+00  7.451919704716E+00
  7.541342741173E+00  7.631838854067E+00  7.723420920316E+00  7.816101971360E+00
  7.909895195016E+00  8.004813937356E+00  8.100871704605E+00  8.198082165060E+00
  8.296459151040E+00  8.396016660853E+00  8.496768860783E+00  8.598730087113E+00
  8.701914848158E+00  8.806337826336E+00  8.912013880252E+00  9.018958046815E+00
  9.127185543377E+00  9.236711769897E+00  9.347552311136E+00  9.459722938870E+00
  9.573239614136E+00  9.688118489506E+00  9.804375911380E+00  9.922028422316E+00
  1.004109276338E+01  1.016158587654E+01  1.028352490706E+01  1.040692720595E+01
  1.053181033242E+01  1.065819205641E+01  1.078609036109E+01  1.091552344542E+01
  1.104650972676E+01  1.117906784348E+01  1.131321665761E+01  1.144897525750E+01
  1.158636296059E+01  1.172539931611E+01  1.186610410791E+01  1.200849735720E+01
  1.215259932549E+01  1.229843051740E+01  1.244601168360E+01  1.259536382381E+01
  1.274650818969E+01  1.289946628797E+01  1.305425988342E+01  1.321091100203E+01
  1.336944193405E+01  1.352987523726E+01  1.369223374011E+01  1.385654054499E+01
  1.402281903153E+01  1.419109285991E+01  1.436138597422E+01  1.453372260591E+01
  1.470812727719E+01  1.488462480451E+01  1.506324030217E+01  1.524399918579E+01
  1.542692717602E+01  1.561205030213E+01  1.579939490576E+01  1.598898764463E+01
  1.618085549636E+01  1.637502576232E+01  1.657152607147E+01  1.677038438433E+01
  1.697162899694E+01  1.717528854490E+01  1.738139200744E+01  1.758996871153E+01
  1.780104833607E+01  1.801466091610E+01  1.823083684709E+01  1.844960688926E+01
  1.867100217193E+01  1.889505419799E+01  1.912179484837E+01  1.935125638655E+01
  1.958347146319E+01  1.981847312075E+01  2.005629479820E+01  2.029697033577E+01
  2.054053397980E+01  2.078702038756E+01  2.103646463221E+01  2.128890220780E+01
  2.154436903429E+01  2.180290146270E+01  2.206453628026E+01  2.232931071562E+01
  2.259726244421E+01  2.286842959354E+01  2.314285074866E+01  2.342056495764E+01
  2.370161173713E+01  2.398603107798E+01  2.427386345092E+01  2.456514981233E+01
  2.485993161007E+01  2.515825078940E+01  2.546014979887E+01  2.576567159645E+01
  2.607485965561E+01  2.638775797148E+01  2.670441106714E+01  2.702486399994E+01
  2.734916236794E+01  2.767735231636E+01  2.800948054415E+01  2.834559431068E+01
  2.868574144241E+01  2.902997033972E+01  2.937832998380E+01  2.973086994360E+01
  3.008764038293E+01  3.044869206752E+01  3.081407637233E+01  3.118384528880E+01
  3.155805143227E+01  3.193674804945E+01  3.231998902605E+01  3.270782889436E+01
  3.310032284109E+01  3.349752671518E+01  3.389949703577E+01  3.430629100020E+01
  3.471796649220E+01  3.513458209010E+01  3.555619707519E+01  3.598287144009E+01
  3.641466589737E+01  3.685164188814E+01  3.729386159079E+01  3.774138792988E+01
  3.819428458504E+01  3.865261600006E+01  3.911644739206E+01  3.958584476077E+01
  4.006087489790E+01  4.054160539667E+01  4.102810466143E+01  4.152044191737E+01
  4.201868722038E+01  4.252291146702E+01  4.303318640463E+01  4.354958464148E+01
  4.407217965718E+01
</grid-data>
</grid>
<valence-charge total-charge="14" is-unscreening-charge="yes"
 rescaled-to-z-pseudo="no">
<radfunc>
<data npts="457">
  6.864071427586E-01  6.900624428670E-01  7.009919838349E-01  7.192349505367E-01
  7.460231532530E-01  7.802374828485E-01  8.238975623759E-01  8.739665364288E-01
  9.303579866984E-01  9.962443752161E-01  1.070669574723E+00  1.151754969582E+00
  1.250012744000E+00  1.352934261726E+00  1.456053255191E+00  1.575201339787E+00
  1.712887376538E+00  1.843868037994E+00  1.991648999414E+00  2.158395330844E+00
  2.346548517478E+00  2.514321010733E+00  2.699112439025E+00  2.902640299369E+00
  3.126786792750E+00  3.373610800863E+00  3.645359278648E+00  3.866990559534E+00
  4.105120488061E+00  4.360923151235E+00  4.635639790330E+00  4.930578312955E+00
  5.247111513705E+00  5.586673662135E+00  5.950755054071E+00  6.340894052361E+00
  6.758666066785E+00  7.205668841133E+00  7.520701160320E+00  7.849907200658E+00
  8.193749367665E+00  8.552677716055E+00  8.927124863729E+00  9.317500200245E+00
  9.724183330127E+00  1.014751669188E+01  1.058779729547E+01  1.104526752476E+01
  1.152010495725E+01  1.201241116215E+01  1.252219944904E+01  1.304938155498E+01
  1.359375327682E+01  1.415497907955E+01  1.473257574066E+01  1.532589512506E+01
  1.593410622604E+01  1.655617665524E+01  1.719085381802E+01  1.783664607151E+01
  1.849180422913E+01  1.915430384740E+01  1.982182880797E+01  2.049175678680E+01
  2.116114728279E+01  2.182673295560E+01  2.248491509402E+01  2.281001463211E+01
  2.313176409708E+01  2.344962163796E+01  2.376302589519E+01  2.407139659303E+01
  2.437413526167E+01  2.467062609621E+01  2.496023695899E+01  2.524232053167E+01
  2.551621562275E+01  2.578124863554E+01  2.603673520108E+01  2.628198197934E+01
  2.651628863130E+01  2.673894996322E+01  2.694925824312E+01  2.714650568845E+01
  2.732998712184E+01  2.749900279076E+01  2.765286134476E+01  2.779088296223E+01
  2.791240261676E+01  2.801677347077E+01  2.810337038238E+01  2.817159350889E+01
  2.822087198822E+01  2.825066767746E+01  2.826047892517E+01  2.824984435232E+01
  2.821834661421E+01  2.816561611410E+01  2.809133463724E+01  2.799523887251E+01
  2.787712378727E+01  2.773684582028E+01  2.757432585641E+01  2.738955194654E+01
  2.718258173621E+01  2.695354456667E+01  2.670264321307E+01  2.643015522596E+01
  2.613643384375E+01  2.582190844678E+01  2.548708452610E+01  2.513254314374E+01
  2.475893986535E+01  2.436700315034E+01  2.395753218987E+01  2.353139418831E+01
  2.308952108952E+01  2.263290575566E+01  2.216259761207E+01  2.167969777881E+01
  2.118535371551E+01  2.068075341304E+01  2.016711917161E+01  1.964570101130E+01
  1.911776976658E+01  1.858460992196E+01  1.804751225040E+01  1.750776632065E+01
  1.696665294264E+01  1.642543662298E+01  1.588535810428E+01  1.534762706254E+01
  1.481341503690E+01  1.428384866484E+01  1.376000329351E+01  1.324289703491E+01
  1.273348532837E+01  1.223265606878E+01  1.174122535316E+01  1.125993389141E+01
  1.078944412001E+01  1.033033804928E+01  9.883115866919E+00  9.448195311613E+00
  9.025911822207E+00  8.616519458846E+00  8.220192584178E+00  7.837028284269E+00
  7.467050900371E+00  7.110223092751E+00  6.766460762463E+00  6.435639130624E+00
  6.117594377978E+00  5.812128759613E+00  5.519014499753E+00  5.237997853038E+00
  4.968803096502E+00  4.711136437150E+00  4.464689805501E+00  4.229144502277E+00
  4.004174666622E+00  3.789450532487E+00  3.584641439114E+00  3.389418561152E+00
  3.203457324052E+00  3.026439471456E+00  2.858054753433E+00  2.698002207823E+00
  2.545990169019E+00  2.401732514847E+00  2.264942735744E+00  2.135335016686E+00
  2.012625141055E+00  1.896531370668E+00  1.786775249938E+00  1.683082335844E+00
  1.585182855628E+00  1.492812294443E+00  1.405711915364E+00  1.323629214376E+00
  1.246318313118E+00  1.173540292288E+00  1.105063468716E+00  1.040663619200E+00
  9.801241542371E-01  9.232362448340E-01  8.697989055712E-01  8.196190371003E-01
  7.725114312200E-01  7.282987416330E-01  6.868114234286E-01  6.478876442629E-01
  6.113731701219E-01  5.771212284598E-01  5.449923513951E-01  5.148542015367E-01
  4.865813828872E-01  4.600552391446E-01  4.351636415894E-01  4.118007686083E-01
  3.898668787650E-01  3.692680791906E-01  3.499160909204E-01  3.317280126709E-01
  3.146260844058E-01  2.985374519128E-01  2.833939334781E-01  2.691317896260E-01
  2.556914967679E-01  2.430175255012E-01  2.310581241871E-01  2.197651083470E-01
  2.090936563238E-01  1.990021115761E-01  1.894517918977E-01  1.804068057869E-01
  1.718338761310E-01  1.637021713130E-01  1.559831437997E-01  1.486503762236E-01
  1.416794349299E-01  1.350477309253E-01  1.287343881282E-01  1.227201187951E-01
  1.169871059686E-01  1.115188927722E-01  1.063002783547E-01  1.013172202755E-01
  9.655674310133E-02  9.200685298267E-02  8.765645796156E-02  8.349529376319E-02
  7.951385481611E-02  7.570333024637E-02  7.205554459010E-02  6.856290297176E-02
  6.521834049826E-02  6.201527562393E-02  5.894756724712E-02  5.600947530587E-02
  5.319562464731E-02  5.050097195376E-02  4.792077551669E-02  4.545056765864E-02
  4.308612961227E-02  4.082346867504E-02  3.865879746710E-02  3.658851512968E-02
  3.460919031042E-02  3.271754579136E-02  3.091044462482E-02  2.918487765107E-02
  2.753795228103E-02  2.596688243578E-02  2.446897954340E-02  2.304164450163E-02
  2.168236052329E-02  2.038868678851E-02  1.915825283541E-02  1.798875362703E-02
  1.687794523897E-02  1.582364111685E-02  1.482370885613E-02  1.387606747298E-02
  1.297868510456E-02  1.212957712642E-02  1.132680463996E-02  1.056847329896E-02
  9.852732442101E-03  9.177774498829E-03  8.541834635658E-03  7.943190610035E-03
  7.380162798731E-03  6.851114367932E-03  6.354451552575E-03  5.888624013329E-03
  5.452125240823E-03  5.043492978369E-03  4.661309636533E-03  4.304202675298E-03
  3.970844932344E-03  3.659954878906E-03  3.370296787803E-03  3.100680801365E-03
  2.849962890150E-03  2.617044696331E-03  2.400873258524E-03  2.200440617448E-03
  2.014783304173E-03  1.842981714816E-03  1.684159377302E-03  1.537482117314E-03
  1.402157131670E-03  1.277431978309E-03  1.162593492617E-03  1.056966640211E-03
  9.599133164096E-04  8.708311025570E-04  7.891519891180E-04  7.143410750695E-04
  6.458952526084E-04  5.833418855895E-04  5.262374894340E-04  4.741664195207E-04
  4.267395743255E-04  3.835931188062E-04  3.443872327736E-04  3.088048882537E-04
  2.765506591397E-04  2.473495657705E-04  2.209459564613E-04  1.971024274593E-04
  1.755987823026E-04  1.562310311289E-04  1.388104301151E-04  1.231625609172E-04
  1.091264497305E-04  9.655372539163E-05  8.530781579005E-05  7.526318174627E-05
  6.630458743724E-05  5.832640639898E-05  5.123196211008E-05  4.493290214843E-05
  3.934860491410E-05  3.440561791902E-05  3.003712665573E-05  2.618245307002E-05
  2.278658267439E-05  1.979971934921E-05  1.717686688546E-05  1.487743632777E-05
  1.286487817764E-05  1.110633851667E-05  9.572338107069E-06  8.236473524173E-06
  7.075139372486E-06  6.067270634682E-06  5.194104202280E-06  4.438958638050E-06
  3.787031224209E-06  3.225211357383E-06  2.741909361497E-06  2.326899803284E-06
  1.971178412019E-06  1.666831725269E-06  1.406918605790E-06  1.185362800889E-06
  9.968557443288E-07  8.367688318904E-07  7.010744345488E-07  5.862749476071E-07
  4.893392095809E-07  4.076456608469E-07  3.389316481044E-07  2.812483230228E-07
  2.329205809017E-07  1.925117123758E-07  1.587917173124E-07  1.307109287069E-07
  1.073724933188E-07  5.406016737812E-08  4.392483995421E-08  3.560801151557E-08
  2.879916626385E-08  2.323786517125E-08  1.870622059089E-08  1.502237646591E-08
  1.203491605186E-08  9.618076090524E-09  7.667658681696E-09  6.097548624669E-09
  4.836754403701E-09  3.826900771163E-09  3.020109692398E-09  2.377214323287E-09
  1.866257761071E-09  1.461234606434E-09  1.141038964084E-09  8.885874518919E-10
  6.900901441158E-10  5.344461987875E-10  4.127442656886E-10  3.178506892897E-10
  2.440710564719E-10  1.868728343977E-10  1.426587385643E-10  1.085821004781E-10
  8.239690088274E-11  6.233632723719E-11  4.701472942027E-11  3.534870886875E-11
  2.649380441079E-11  1.979385140359E-11  1.474060571404E-11  1.094165488562E-11
  8.094998002604E-12  5.968974158505E-12  4.386466469637E-12  3.212512364326E-12
  2.344618395169E-12  1.705215028453E-12  1.235798840394E-12  8.924006016290E-13
  6.420914983108E-13  4.602992806311E-13  3.287540118486E-13  2.339214516918E-13
  1.658127244139E-13  1.170832638794E-13  8.235330707680E-14  5.769741706633E-14
  4.026246842310E-14  2.798288316443E-14  1.936919797543E-14  1.335170581311E-14
  9.165293280958E-15  6.264966689900E-15  4.264145137934E-15  2.889773182277E-15
  1.949806801057E-15  1.309762812860E-15  8.758785793555E-16  5.830717122856E-16
  3.863698357442E-16  2.548377121074E-16  1.672935517449E-16  1.093012700180E-16
  7.106845948961E-17  4.598425603545E-17  2.960714804031E-17  1.896764459175E-17
  1.209020339377E-17  7.667094723641E-18  4.837025669725E-18  3.035633227377E-18
  1.895030569417E-18  1.176661388788E-18  7.266531405391E-19  4.462876283367E-19
  2.725749304781E-19  1.655431913300E-19  9.996816452709E-20  6.002157261206E-20
  3.582763927237E-20  2.126002322754E-20  1.254045143167E-20  7.352504425833E-21
  4.284483841552E-21  2.481251624446E-21  1.427972197214E-21  8.166056329795E-22
  4.639975510005E-22  0.000000000000E+00  0.000000000000E+00  0.000000000000E+00
  0.000000000000E+00
</data>
</radfunc>
</valence-charge>
<pseudocore-charge matching-radius="0.468154568481"
 number-of-continuous-derivatives="4">
<annotation model-charge-form="Teter function with specified parameters" />
<radfunc>
<data npts="290">
  1.215667867537E+02  1.215494498694E+02  1.214976317197E+02  1.214112066793E+02
  1.212844501035E+02  1.211228146347E+02  1.209169765694E+02  1.206815001276E+02
  1.204170200668E+02  1.201089794027E+02  1.197622615631E+02  1.193860000237E+02
  1.189320962415E+02  1.184590100307E+02  1.179873979620E+02  1.174453920669E+02
  1.168228714680E+02  1.162343833799E+02  1.155746641277E+02  1.148355641378E+02
  1.140081281104E+02  1.132760174289E+02  1.124756850528E+02  1.116013308545E+02
  1.106467783402E+02  1.096054759846E+02  1.084705056555E+02  1.075534488935E+02
  1.065764363746E+02  1.055361893944E+02  1.044293488612E+02  1.032524905257E+02
  1.020021437469E+02  1.006748142492E+02  9.926701134577E+01  9.777528012922E+01
  9.619623913887E+01  9.452662401860E+01  9.336169031838E+01  9.215425552775E+01
  9.090350731438E+01  8.960869483106E+01  8.826913838406E+01  8.688423979454E+01
  8.545349345652E+01  8.397649808705E+01  8.245296915501E+01  8.088275196352E+01
  7.926583534864E+01  7.760236594211E+01  7.589266292926E+01  7.413723321460E+01
  7.233678688647E+01  7.049225284912E+01  6.860479446530E+01  6.667582502476E+01
  6.470702282491E+01  6.270034561845E+01  6.065804415060E+01  5.858267447476E+01
  5.647710870207E+01  5.434454380711E+01  5.218850808040E+01  5.001286478968E+01
  4.782181258699E+01  4.561988218018E+01  4.341192877608E+01  4.230729651518E+01
  4.120311980111E+01  4.010009047917E+01  3.899891741636E+01  3.790032563849E+01
  3.680505536915E+01  3.571386096796E+01  3.462750976582E+01  3.354678079501E+01
  3.247246341294E+01  3.140535581820E+01  3.034626345859E+01  2.929599733115E+01
  2.825537217482E+01  2.722520455730E+01  2.620631085803E+01  2.519950515055E+01
  2.420559698768E+01  2.322538909463E+01  2.225967497547E+01  2.130923643968E+01
  2.037484105669E+01  1.945723954701E+01  1.855716312007E+01  1.767532076967E+01
  1.681239653945E+01  1.596904677151E+01  1.514589735287E+01  1.434354097529E+01
  1.356253442508E+01  1.280339592079E+01  1.206660251718E+01  1.135258759531E+01
  1.066173845870E+01  9.994394056887E+00  9.350842857403E+00  8.731320888241E+00
  8.136009972517E+00  7.565036177208E+00  7.018468497471E+00  6.496317797502E+00
  5.998536028074E+00  5.525015739807E+00  5.075589909792E+00  4.650032097499E+00
  4.248056943858E+00  3.869321025023E+00  3.513424069700E+00  3.179910545848E+00
  2.868271619324E+00  2.577947483399E+00  2.308330054238E+00  2.058766023329E+00
  1.828560253585E+00  1.616979501370E+00  1.423256442234E+00  1.246593973539E+00
  1.086169762699E+00  9.411410053421E-01  8.106493535361E-01  6.938259703266E-01
  5.897966633339E-01  4.976870471256E-01  4.166276816281E-01  3.457591320490E-01
  2.842368947392E-01  2.312361332167E-01  1.859561692588E-01  1.476246756210E-01
  1.155015195813E-01  8.888221017274E-02  6.710090664653E-02  4.953295138494E-02
  3.559689709627E-02  2.475600560549E-02  1.651920378673E-02  1.044149103364E-02
  6.123801965845E-03  3.212337630204E-03  1.397388061245E-03  4.116784813763E-04
  2.828040061473E-05  5.813716409768E-05  3.472608398264E-04  7.736634955266E-04
  1.244090657322E-03  1.690627878020E-03  2.067252711446E-03  2.346403881421E-03
  2.515636995942E-03  2.574431798398E-03  2.531209746358E-03  2.400612813924E-03
  2.201085046420E-03  1.952787844515E-03  1.675868568043E-03  1.389090227303E-03
  1.108818207315E-03  8.483486033957E-04  6.175522881518E-04  4.227997117350E-04
  2.671240441738E-04  1.505749180077E-04  7.071194976452E-05  2.318653216137E-05
  2.362098423873E-06  1.927043111042E-06  1.546049228186E-05  3.691878471047E-05
  6.101938973466E-05  8.350850495572E-05  1.013081628797E-04  1.125477369053E-04
  1.164927138968E-04  1.133900063741E-04  1.042535366247E-04  9.061610483777E-05
  7.427358540137E-05  5.704538605763E-05  4.057113025216E-05  2.615811134582E-05
  1.468776308990E-05  6.582809275611E-06  1.830527180379E-06  5.226996353213E-08
  6.055250138168E-07  2.702667384605E-06  5.530338864268E-06  8.354975668298E-06
  1.060315101737E-05  1.190964979346E-05  1.213098562731E-05  1.132678633697E-05
  9.715514726307E-06  7.613861764850E-06  5.370518624756E-06  3.304786868969E-06
  1.658737357355E-06  5.687091530488E-07  5.834864543330E-08  0.000000000000E+00
  0.000000000000E+00  0.000000000000E+00  0.000000000000E+00  0.000000000000E+00
  0.000000000000E+00  0.000000000000E+00  0.000000000000E+00  0.000000000000E+00
  0.000000000000E+00  0.000000000000E+00  0.000000000000E+00  0.000000000000E+00
  0.000000000000E+00  0.000000000000E+00  0.000000000000E+00  0.000000000000E+00
  0.000000000000E+00  0.000000000000E+00  0.000000000000E+00  0.000000000000E+00
  0.000000000000E+00  0.000000000000E+00  0.000000000000E+00  0.000000000000E+00
  0.000000000000E+00  0.000000000000E+00  0.000000000000E+00  0.000000000000E+00
  0.000000000000E+00  0.000000000000E+00  0.000000000000E+00  0.000000000000E+00
  0.000000000000E+00  0.000000000000E+00  0.000000000000E+00  0.000000000000E+00
  0.000000000000E+00  0.000000000000E+00  0.000000000000E+00  0.000000000000E+00
  0.000000000000E+00  0.000000000000E+00  0.000000000000E+00  0.000000000000E+00
  0.000000000000E+00  0.000000000000E+00  0.000000000000E+00  0.000000000000E+00
  0.000000000000E+00  0.000000000000E+00  0.000000000000E+00  0.000000000000E+00
  0.000000000000E+00  0.000000000000E+00  0.000000000000E+00  0.000000000000E+00
  0.000000000000E+00  0.000000000000E+00  0.000000000000E+00  0.000000000000E+00
  0.000000000000E+00  0.000000000000E+00  0.000000000000E+00  0.000000000000E+00
  0.000000000000E+00  0.000000000000E+00  0.000000000000E+00  0.000000000000E+00
  0.000000000000E+00  0.000000000000E+00  0.000000000000E+00  0.000000000000E+00
  0.000000000000E+00  0.000000000000E+00  0.000000000000E+00  0.000000000000E+00
  0.000000000000E+00  0.000000000000E+00  0.000000000000E+00  0.000000000000E+00
  0.000000000000E+00  0.000000000000E+00
</data>
</radfunc>
</pseudocore-charge>
<semilocal-potentials set="scalar_relativistic">
<slps n="3" l="s" rc="1.10506078139" eref="-2.71104838998">
<radfunc>
<data npts="290">
  2.983569668063E+01  2.980769406086E+01  2.972472369607E+01  2.958684876975E+01
  2.938559862125E+01  2.913059698522E+01  2.880846043719E+01  2.844346308497E+01
  2.803792284498E+01  2.757137386225E+01  2.705354694629E+01  2.650015579881E+01
  2.584413813386E+01  2.517349720097E+01  2.451787618006E+01  2.377986259042E+01
  2.295196254399E+01  2.218806480806E+01  2.135257418234E+01  2.044176005209E+01
  1.945236626257E+01  1.860249030271E+01  1.769966409406E+01  1.674331476336E+01
  1.573332760487E+01  1.467010562841E+01  1.355462503643E+01  1.268465677171E+01
  1.178709558671E+01  1.086307530299E+01  9.913951068249E+00  8.941301256295E+00
  7.946926408291E+00  6.932845040966E+00  5.901286225793E+00  4.854678932143E+00
  3.795638224426E+00  2.726948504059E+00  2.010571645261E+00  1.292109870163E+00
  5.724875052108E-01 -1.473520298793E-01 -8.664495146720E-01 -1.583833280728E+00
 -2.298522588447E+00 -3.009530991634E+00 -3.715869653654E+00 -4.416550580065E+00
 -5.110589734264E+00 -5.797010005051E+00 -6.474843997965E+00 -7.143136625833E+00
 -7.800947478014E+00 -8.447352952371E+00 -9.081448138874E+00 -9.702348448900E+00
 -1.030919098966E+01 -1.090113568859E+01 -1.147736617793E+01 -1.203709045517E+01
 -1.257954133986E+01 -1.310397675237E+01 -1.360967984440E+01 -1.409595901494E+01
 -1.456214784890E+01 -1.500760501814E+01 -1.543171418671E+01 -1.563557748624E+01
 -1.583388396351E+01 -1.602656359924E+01 -1.621354794561E+01 -1.639477013561E+01
 -1.657016489538E+01 -1.673966855998E+01 -1.690321909279E+01 -1.706075610881E+01
 -1.721222090213E+01 -1.735755647785E+01 -1.749670758855E+01 -1.762962077560E+01
 -1.775624441543E+01 -1.787652877092E+01 -1.799042604790E+01 -1.809789045701E+01
 -1.819887828084E+01 -1.829334794629E+01 -1.838126010231E+01 -1.846257770284E+01
 -1.853726609476E+01 -1.860529311097E+01 -1.866662916825E+01 -1.872124736985E+01
 -1.876912361254E+01 -1.881023669813E+01 -1.884456844916E+01 -1.887210382863E+01
 -1.889283106394E+01 -1.890674177475E+01 -1.891383110509E+01 -1.891409785994E+01
 -1.890754464664E+01 -1.889417802182E+01 -1.887400864468E+01 -1.884705143782E+01
 -1.881332575713E+01 -1.877285557253E+01 -1.872566966207E+01 -1.867180182195E+01
 -1.861129109600E+01 -1.854418202840E+01 -1.847052494416E+01 -1.839037626249E+01
 -1.830379884890E+01 -1.821086241227E+01 -1.811164395413E+01 -1.800622827760E+01
 -1.789470856413E+01 -1.777718702651E+01 -1.765377564680E+01 -1.752459700790E+01
 -1.738978522719E+01 -1.724948700002E+01 -1.710386275999E+01 -1.695308796122E+01
 -1.679735448599E+01 -1.663687217821E+01 -1.647187049979E+01 -1.630260030247E+01
 -1.612933570244E+01 -1.595237603860E+01 -1.577204788800E+01 -1.558870710309E+01
 -1.540274082602E+01 -1.521456942389E+01 -1.502464827763E+01 -1.483346934394E+01
 -1.464156239700E+01 -1.444949584332E+01 -1.425787698997E+01 -1.406735163459E+01
 -1.387860283526E+01 -1.369234871016E+01 -1.350933911234E+01 -1.333035102417E+01
 -1.315618255261E+01 -1.298764497382E+01 -1.282555291764E+01 -1.267072087697E+01
 -1.252082520676E+01 -1.237246896284E+01 -1.222583098428E+01 -1.208089005594E+01
 -1.193763062880E+01 -1.179603827744E+01 -1.165609621739E+01 -1.151778814693E+01