<?xml version="1.0" encoding="UTF-8" ?>
<psml version="1.1" energy_unit="hartree" length_unit="bohr"
 uuid="0f03f4a0-1d65-11e8-57f7-9f69ff9d8393"
 xmlns="http://esl.cecam.org/PSML/ns/1.1">
<provenance creator="ONCVPSP-3.3.0+psml-3.3.0-73 (scalar-relativistic)"
 date="2018-03-01">
<annotation action="semilocal-pseudopotential-generation"
 action-cont="projectors-generation" />
<input-file name="oncvpsp-input">
<![CDATA[# atsym z nc nv iexc psfile
Mg 12 1 3 -116133 upf
# n l f
1 0 2.0
2 0 2.0
2 1 6.0
3 0 2.0
# lmax
1
# l rc ep ncon nbas qcut
0 1.15 0.0 4 8 9.1
1 1.55 0.0 4 8 9.0
# lloc lpopt rc5 dvloc0
4 5 1.1 0.0
# l nproj debl
0 2 1.0
1 2 3.0
# icmod fcfact
0 4 1.5
# epsh1 epsh2 depsh
-12.0 12.0 0.02
# rlmax drl
4.0 0.01
 0
]]>
</input-file>
</provenance>
<pseudo-atom-spec atomic-label="Mg" atomic-number="12" z-pseudo="10"
 flavor="Hamann&apos;s oncvpsp" relativity="scalar" spin-dft="no"
 core-corrections="no">
<annotation pseudo-energy="-59.2428340781" />
<exchange-correlation>
<annotation oncvpsp-xc-code="-116133" oncvpsp-xc-type="libxc-interface" />
<libxc-info number-of-functionals="2">
<functional name="Perdew, Burke &amp; Ernzerhof SOL (GGA)" type="exchange"
 id="116" />
<functional name="Perdew, Burke &amp; Ernzerhof SOL (GGA)" type="correlation"
 id="133" />
</libxc-info>
</exchange-correlation>
<valence-configuration total-valence-charge="10">
<shell n="2" l="s" occupation="2" />
<shell n="2" l="p" occupation="6" />
<shell n="3" l="s" occupation="2" />
</valence-configuration>
</pseudo-atom-spec>
<grid npts="457">
<annotation type="sampled from oncvpsp log grid"
 recipe="r(i:1..N) = r1*exp(a*(i-1)) + r=0; resampled"
 recipe-cont="r1: scale; a: step" scale="0.416666666667E-04"
 step="0.119285708653E-01" delta="0.500000000000E-02" rmax="44.1290725605" />
<grid-data>
  0.000000000000E+00  5.039120976724E-03  1.006524869499E-02  1.509947805150E-02
  2.010454437589E-02  2.521877418060E-02  3.052194271270E-02  3.564173488318E-02
  4.112680627824E-02  4.633723448486E-02  5.158871650650E-02  5.675430673824E-02
  6.243712872626E-02  6.787447925602E-02  7.291041759287E-02  7.831999673271E-02
  8.413093890731E-02  8.930140632003E-02  9.478963713363E-02  1.006151602554E-01
  1.067987047883E-01  1.120180571063E-01  1.174924840404E-01  1.232344513249E-01
  1.292570339063E-01  1.355739457160E-01  1.421995708979E-01  1.473804313857E-01
  1.527500499353E-01  1.583153037066E-01  1.640833204201E-01  1.700614874857E-01
  1.762574614640E-01  1.826791778729E-01  1.893348613508E-01  1.962330361902E-01
  2.033825372554E-01  2.107925212977E-01  2.158818959319E-01  2.210941484273E-01
  2.264322455469E-01  2.318992256834E-01  2.374982005883E-01  2.432323571433E-01
  2.491049591741E-01  2.551193493084E-01  2.612789508781E-01  2.675872698681E-01
  2.740478969118E-01  2.806645093349E-01  2.874408732483E-01  2.943808456920E-01
  3.014883768304E-01  3.087675122006E-01  3.162223950151E-01  3.238572685204E-01
  3.316764784115E-01  3.396844753063E-01  3.478858172781E-01  3.562851724504E-01
  3.648873216541E-01  3.736971611481E-01  3.827197054069E-01  3.919600899742E-01
  4.014235743866E-01  4.111155451665E-01  4.210415188890E-01  4.260940171157E-01
  4.312071453211E-01  4.363816310649E-01  4.416182106377E-01  4.469176291654E-01
  4.522806407154E-01  4.577080084040E-01  4.632005045048E-01  4.687589105589E-01
  4.743840174856E-01  4.800766256954E-01  4.858375452037E-01  4.916675957462E-01
  4.975676068951E-01  5.035384181779E-01  5.095808791960E-01  5.156958497464E-01
  5.218841999433E-01  5.281468103426E-01  5.344845720667E-01  5.408983869316E-01
  5.473891675747E-01  5.539578375856E-01  5.606053316367E-01  5.673325956163E-01
  5.741405867637E-01  5.810302738049E-01  5.880026370905E-01  5.950586687356E-01
  6.021993727604E-01  6.094257652335E-01  6.167388744164E-01  6.241397409093E-01
  6.316294178003E-01  6.392089708139E-01  6.468794784636E-01  6.546420322052E-01
  6.624977365917E-01  6.704477094308E-01  6.784930819439E-01  6.866349989273E-01
  6.948746189144E-01  7.032131143414E-01  7.116516717134E-01  7.201914917740E-01
  7.288337896753E-01  7.375797951514E-01  7.464307526932E-01  7.553879217255E-01
  7.644525767862E-01  7.736260077077E-01  7.829095198002E-01  7.923044340378E-01
  8.018120872462E-01  8.114338322932E-01  8.211710382807E-01  8.310250907401E-01
  8.409973918289E-01  8.510893605309E-01  8.613024328573E-01  8.716380620516E-01
  8.820977187962E-01  8.926828914217E-01  9.033950861188E-01  9.142358271522E-01
  9.252066570780E-01  9.363091369630E-01  9.475448466065E-01  9.589153847658E-01
  9.704223693830E-01  9.820674378156E-01  9.938522470694E-01  1.005778474034E+00
  1.017847815723E+00  1.030061989511E+00  1.042422733385E+00  1.054931806186E+00
  1.067590987860E+00  1.080402079715E+00  1.093366904671E+00  1.106487307527E+00
  1.119765155218E+00  1.133202337080E+00  1.146800765125E+00  1.160562374307E+00
  1.174489122798E+00  1.188582992272E+00  1.202845988179E+00  1.217280140037E+00
  1.231887501718E+00  1.246670151738E+00  1.261630193559E+00  1.276769755882E+00
  1.292090992953E+00  1.307596084868E+00  1.323287237886E+00  1.339166684741E+00
  1.355236684958E+00  1.371499525177E+00  1.387957519480E+00  1.404613009713E+00
  1.421468365830E+00  1.438525986220E+00  1.455788298054E+00  1.473257757631E+00
  1.490936850723E+00  1.508828092931E+00  1.526934030047E+00  1.545257238407E+00
  1.563800325268E+00  1.582565929171E+00  1.601556720321E+00  1.620775400965E+00
  1.640224705777E+00  1.659907402246E+00  1.679826291073E+00  1.699984206566E+00
  1.720384017045E+00  1.741028625249E+00  1.761920968752E+00  1.783064020377E+00
  1.804460788622E+00  1.826114318085E+00  1.848027689902E+00  1.870204022181E+00
  1.892646470447E+00  1.915358228093E+00  1.938342526830E+00  1.961602637152E+00
  1.985141868797E+00  2.008963571223E+00  2.033071134078E+00  2.057467987687E+00
  2.082157603539E+00  2.107143494781E+00  2.132429216719E+00  2.158018367319E+00
  2.183914587727E+00  2.210121562780E+00  2.236643021533E+00  2.263482737792E+00
  2.290644530645E+00  2.318132265013E+00  2.345949852193E+00  2.374101250419E+00
  2.402590465424E+00  2.431421551009E+00  2.460598609622E+00  2.490125792937E+00
  2.520007302452E+00  2.550247390082E+00  2.580850358763E+00  2.611820563068E+00
  2.643162409825E+00  2.674880358743E+00  2.706978923047E+00  2.739462670124E+00
  2.772336222165E+00  2.805604256831E+00  2.839271507913E+00  2.873342766008E+00
  2.907822879201E+00  2.942716753751E+00  2.978029354796E+00  3.013765707053E+00
  3.049930895538E+00  3.086530066285E+00  3.123568427080E+00  3.161051248205E+00
  3.198983863183E+00  3.237371669542E+00  3.276220129576E+00  3.315534771131E+00
  3.355321188385E+00  3.395585042645E+00  3.436332063157E+00  3.477568047915E+00
  3.519298864490E+00  3.561530450864E+00  3.604268816274E+00  3.647520042069E+00
  3.691290282574E+00  3.735585765965E+00  3.780412795157E+00  3.825777748699E+00
  3.871687081683E+00  3.918147326663E+00  3.965165094583E+00  4.012747075718E+00
  4.060900040627E+00  4.109630841114E+00  4.158946411208E+00  4.208853768142E+00
  4.259360013360E+00  4.310472333520E+00  4.362198001522E+00  4.414544377541E+00
  4.467518910071E+00  4.521129136992E+00  4.575382686636E+00  4.630287278875E+00
  4.685850726222E+00  4.742080934937E+00  4.798985906156E+00  4.856573737030E+00
  4.914852621874E+00  4.973830853337E+00  5.033516823577E+00  5.093919025460E+00
  5.155046053765E+00  5.216906606410E+00  5.279509485687E+00  5.342863599515E+00
  5.406977962710E+00  5.471861698262E+00  5.537524038641E+00  5.603974327105E+00
  5.671222019030E+00  5.739276683259E+00  5.808148003458E+00  5.877845779499E+00
  5.948379928853E+00  6.019760487999E+00  6.091997613855E+00  6.165101585222E+00
  6.239082804244E+00  6.313951797895E+00  6.389719219470E+00  6.466395850104E+00
  6.543992600305E+00  6.622520511509E+00  6.701990757647E+00  6.782414646738E+00
  6.863803622499E+00  6.946169265969E+00  7.029523297161E+00  7.113877576727E+00
  7.199244107648E+00  7.285635036939E+00  7.373062657383E+00  7.461539409271E+00
  7.551077882182E+00  7.641690816769E+00  7.733391106570E+00  7.826191799849E+00
  7.920106101447E+00  8.015147374664E+00  8.111329143160E+00  8.208665092878E+00
  8.307169073993E+00  8.406855102881E+00  8.507737364115E+00  8.609830212485E+00
  8.713148175034E+00  8.817705953135E+00  8.923518424572E+00  9.030600645667E+00
  9.138967853415E+00  9.248635467656E+00  9.359619093268E+00  9.471934522387E+00
  9.585597736656E+00  9.700624909496E+00  9.817032408410E+00  9.934836797311E+00
  1.005405483888E+01  1.017470349694E+01  1.029679993891E+01  1.042036153818E+01
  1.054540587663E+01  1.067195074715E+01  1.080001415612E+01  1.092961432599E+01
  1.106076969790E+01  1.119349893428E+01  1.132782092149E+01  1.146375477255E+01
  1.160131982982E+01  1.174053566778E+01  1.188142209579E+01  1.202399916094E+01
  1.216828715087E+01  1.231430659668E+01  1.246207827584E+01  1.261162321515E+01
  1.276296269373E+01  1.291611824606E+01  1.307111166501E+01  1.322796500499E+01
  1.338670058505E+01  1.354734099207E+01  1.370990908398E+01  1.387442799298E+01
  1.404092112890E+01  1.420941218245E+01  1.437992512864E+01  1.455248423018E+01
  1.472711404094E+01  1.490383940943E+01  1.508268548235E+01  1.526367770813E+01
  1.544684184063E+01  1.563220394272E+01  1.581979039003E+01  1.600962787471E+01
  1.620174340921E+01  1.639616433012E+01  1.659291830208E+01  1.679203332171E+01
  1.699353772157E+01  1.719746017423E+01  1.740382969632E+01  1.761267565267E+01
  1.782402776050E+01  1.803791609363E+01  1.825437108675E+01  1.847342353979E+01
  1.869510462227E+01  1.891944587774E+01  1.914647922827E+01  1.937623697901E+01
  1.960875182276E+01  1.984405684463E+01  2.008218552677E+01  2.032317175309E+01
  2.056704981413E+01  2.081385441190E+01  2.106362066484E+01  2.131638411282E+01
  2.157218072217E+01  2.183104689084E+01  2.209301945353E+01  2.235813568697E+01
  2.262643331521E+01  2.289795051500E+01  2.317272592118E+01  2.345079863223E+01
  2.373220821582E+01  2.401699471441E+01  2.430519865098E+01  2.459686103479E+01
  2.489202336721E+01  2.519072764761E+01  2.549301637939E+01  2.579893257594E+01
  2.610851976685E+01  2.642182200405E+01  2.673888386810E+01  2.705975047452E+01
  2.738446748021E+01  2.771308108997E+01  2.804563806305E+01  2.838218571981E+01
  2.872277194845E+01  2.906744521183E+01  2.941625455437E+01  2.976924960902E+01
  3.012648060433E+01  3.048799837158E+01  3.085385435204E+01  3.122410060427E+01
  3.159878981152E+01  3.197797528926E+01  3.236171099273E+01  3.275005152464E+01
  3.314305214294E+01  3.354076876865E+01  3.394325799388E+01  3.435057708980E+01
  3.476278401488E+01  3.517993742306E+01  3.560209667214E+01  3.602932183220E+01
  3.646167369419E+01  3.689921377852E+01  3.734200434386E+01  3.779010839599E+01
  3.824358969674E+01  3.870251277310E+01  3.916694292638E+01  3.963694624149E+01
  4.011258959639E+01  4.059394067155E+01  4.108106795961E+01  4.157404077512E+01
  4.207292926442E+01  4.257780441560E+01  4.308873806858E+01  4.360580292541E+01
  4.412907256051E+01
</grid-data>
</grid>
<valence-charge total-charge="10" is-unscreening-charge="yes"
 rescaled-to-z-pseudo="no">
<radfunc>
<data npts="457">
  2.557140071716E+01  2.557845374245E+01  2.559952807586E+01  2.563465586646E+01
  2.568343027718E+01  2.574744799668E+01  2.582884777661E+01  2.592179625127E+01
  2.603684524661E+01  2.616074726312E+01  2.629980058450E+01  2.645021489537E+01
  2.663098938483E+01  2.681861112828E+01  2.700483954754E+01  2.721786283576E+01
  2.746120145248E+01  2.768992289221E+01  2.794480124951E+01  2.822841719172E+01
  2.854349200388E+01  2.882010399857E+01  2.912014861943E+01  2.944512333744E+01
  2.979651243474E+01  3.017575623717E+01  3.058421257715E+01  3.091047057306E+01
  3.125430658655E+01  3.161609663555E+01  3.199612262654E+01  3.239455120640E+01
  3.281140985050E+01  3.324655999732E+01  3.369966706448E+01  3.417016721964E+01
  3.465723083383E+01  3.515972262001E+01  3.550257122403E+01  3.585109013312E+01
  3.620465983561E+01  3.656256995931E+01  3.692401255213E+01  3.728807525564E+01
  3.765373443326E+01  3.801984832727E+01  3.838515033253E+01  3.874824249000E+01
  3.910758931918E+01  3.946151212633E+01  3.980818394399E+01  4.014562527655E+01
  4.047170084725E+01  4.078411756191E+01  4.108042392567E+01  4.135801116805E+01
  4.161411635035E+01  4.184582774520E+01  4.205009279096E+01  4.222372893215E+01
  4.236343765980E+01  4.246582206152E+01  4.252740817758E+01  4.254467043603E+01
  4.251406140366E+01  4.243204603937E+01  4.229514057025E+01  4.220504000471E+01
  4.209995602591E+01  4.197948772169E+01  4.184324636364E+01  4.169085714713E+01
  4.152196099177E+01  4.133621639789E+01  4.113330135424E+01  4.091291529107E+01
  4.067478107204E+01  4.041864701762E+01  4.014428895171E+01  3.985151226241E+01
  3.954015396686E+01  3.921008476935E+01  3.886121110087E+01  3.849347712736E+01
  3.810686671315E+01  3.770140532528E+01  3.727716186326E+01  3.683425039870E+01
  3.637283180788E+01  3.589311528027E+01  3.539535968519E+01  3.487987477878E+01
  3.434702223266E+01  3.379721646624E+01  3.323092526416E+01  3.264867016089E+01
  3.205102657500E+01  3.143862367596E+01  3.081214396785E+01  3.017232257474E+01
  2.951994621459E+01  2.885585184983E+01  2.818092500475E+01  2.749609774208E+01
  2.680234629380E+01  2.610068834354E+01  2.539217996148E+01  2.467791219537E+01
  2.395900732523E+01  2.323661479263E+01  2.251190681935E+01  2.178607373435E+01
  2.106031903173E+01  2.033585418658E+01  1.961389325965E+01  1.889564732565E+01
  1.818231876382E+01  1.747509545289E+01  1.677514491591E+01  1.608360846325E+01
  1.540159538448E+01  1.473017724176E+01  1.407038231868E+01  1.342319027920E+01
  1.278952709106E+01  1.217026026745E+01  1.156619447875E+01  1.097806758406E+01
  1.040654712836E+01  9.852227347506E+00  9.315626717818E+00  8.797186081466E+00
  8.297267372330E+00  7.816152959841E+00  7.354045620747E+00  6.911069140650E+00
  6.487269538947E+00  6.082616902342E+00  5.697007803841E+00  5.330268276005E+00
  4.982157299589E+00  4.652370761607E+00  4.340545830534E+00  4.046265690946E+00
  3.769064575548E+00  3.508433029327E+00  3.263823338660E+00  3.034655057545E+00
  2.820320563850E+00  2.620190580460E+00  2.433619599486E+00  2.259951152084E+00
  2.098523020128E+00  1.948672768734E+00  1.809743272900E+00  1.681086605505E+00
  1.562067585165E+00  1.452066922065E+00  1.350483981999E+00  1.256739160308E+00
  1.170275874361E+00  1.090562186939E+00  1.017092077828E+00  9.493863843914E-01
  8.869934342493E-01  8.294893943451E-01  7.764783606895E-01  7.275922121238E-01
  6.824902496705E-01  6.408586407018E-01  6.024096845358E-01  5.668809134513E-01
  5.340340408302E-01  5.036537664759E-01  4.755464483981E-01  4.495386507045E-01
  4.254755788341E-01  4.032188438881E-01  3.826420200354E-01  3.636253739440E-01
  3.460556718129E-01  3.298259103817E-01  3.148350845593E-01  3.009879515599E-01
  2.881947950537E-01  2.763711931566E-01  2.654377940301E-01  2.553201023332E-01
  2.459482787172E-01  2.372569531122E-01  2.291850509365E-01  2.216756298877E-01
  2.146757239610E-01  2.081361909643E-01  2.020115601121E-01  1.962598771351E-01
  1.908425454913E-01  1.857241634510E-01  1.808723578137E-01  1.762576156972E-01
  1.718531161755E-01  1.676345635822E-01  1.635800241312E-01  1.596697672132E-01
  1.558861123939E-01  1.522132828115E-01  1.486372653888E-01  1.451456780436E-01
  1.417276439087E-01  1.383736724483E-01  1.350755472757E-01  1.318262204292E-01
  1.286197128321E-01  1.254510206581E-01  1.223160273181E-01  1.192114207958E-01
  1.161346160680E-01  1.130836823599E-01  1.100572749982E-01  1.070545716389E-01
  1.040752126600E-01  1.011192455196E-01  9.818707289368E-02  9.527940441440E-02
  9.239721184288E-02  8.954168751472E-02  8.671420590649E-02  8.391628817666E-02
  8.114956954078E-02  7.841576934581E-02  7.571666371328E-02  7.305406062508E-02
  7.042977732985E-02  6.784561995115E-02  6.530336518203E-02  6.280474395367E-02
  6.035142696836E-02  5.794501199014E-02  5.558701278858E-02  5.327884963398E-02
  5.102184124451E-02  4.881719808827E-02  4.666601694576E-02  4.456927664076E-02
  4.252783485001E-02  4.054242590541E-02  3.861365950474E-02  3.674202025094E-02
  3.492786794304E-02  3.317143854609E-02  3.147284577166E-02  2.983208320562E-02
  2.824902692449E-02  2.672343854798E-02  2.525496868041E-02  2.384316070020E-02
  2.248745486207E-02  2.118719267496E-02  1.994162157135E-02  1.874989976546E-02
  1.761110136703E-02  1.652422169474E-02  1.548818278353E-02  1.450183907186E-02
  1.356398325301E-02  1.267335227160E-02  1.182863344258E-02  1.102847066559E-02
  1.027147070296E-02  9.556209485003E-03  8.881238402418E-03  8.245090542588E-03
  7.646286824403E-03  7.083341985668E-03  6.554770377755E-03  6.059091524065E-03
  5.594835402084E-03  5.160547413025E-03  4.754793008109E-03  4.376161946263E-03
  4.023272164062E-03  3.694773244968E-03  3.389349481034E-03  3.105722526182E-03
  2.842653645599E-03  2.598945570767E-03  2.373443974049E-03  2.165038580386E-03
  1.972663936788E-03  1.795299862615E-03  1.631971605416E-03  1.481749728224E-03
  1.343749754774E-03  1.217131599226E-03  1.101098806601E-03  9.948976294282E-04
  8.978159650821E-04  8.091821769838E-04  7.283638213723E-04  6.547662997293E-04
  5.878314552193E-04  5.270361297450E-04  4.718906964405E-04  4.219375806776E-04
  3.767497809655E-04  3.359293995200E-04  2.991061907683E-04  2.659361346734E-04
  2.361000405043E-04  2.093021855601E-04  1.852689923747E-04  1.637477470797E-04
  1.445053608862E-04  1.273271760436E-04  1.120158171430E-04  9.839008823170E-05
  8.628391588951E-05  7.554533816655E-05  6.603553908565E-05  5.762792825913E-05
  5.020726505018E-05  4.366882660767E-05  3.791761902131E-05  3.286763077284E-05
  2.844112759125E-05  2.456798775688E-05  2.118507683802E-05  1.823566078327E-05
  1.566885623428E-05  1.343911686618E-05  1.150575450921E-05  9.832493755349E-06
  8.387058708488E-06  7.140790499149E-06  6.068294153043E-06  5.147113380140E-06
  4.357431836220E-06  3.681799403225E-06  3.104882037759E-06  2.613233748843E-06
  2.195089285975E-06  1.840176146246E-06  1.539544544047E-06  1.285414027921E-06
  1.071035475664E-06  8.905672499331E-07  7.389643514635E-07  6.118794647693E-07
  5.055748509906E-07  4.168441035890E-07  3.429428441774E-07  2.815274972114E-07
  2.306013429851E-07  1.884671078558E-07  1.536854084164E-07  1.250384220829E-07
  1.014982099606E-07  8.219916868004E-08  6.641413596591E-08  5.353371992332E-08
  4.304846432327E-08  3.453350153195E-08  2.763538117514E-08  2.206079621563E-08
  1.756695892881E-08  1.395340739423E-08  1.105504869870E-08  8.736268205130E-09
  6.885955121157E-09  5.413313353534E-09  4.244343407297E-09  3.318896034241E-09
  2.588211601825E-09  2.012870885623E-09  1.561093324967E-09  1.207327855325E-09
  9.310893675214E-10  7.160007607916E-10  5.490065634702E-10  4.197292930276E-10
  3.199442093276E-10  2.431519663472E-10  1.842319653749E-10  1.391620265770E-10
  1.047923884356E-10  7.866407185304E-11  5.886335748834E-11  4.390556516629E-11
  3.264253180821E-11  2.418919328343E-11  1.786551558617E-11  1.315071760880E-11
  9.647303843191E-12  7.052899834319E-12  5.138272635638E-12  3.730236966945E-12
  2.698407238607E-12  1.944966231812E-12  1.396791573020E-12  9.994184010622E-13
  7.124268089902E-13  5.059307563514E-13  3.579153427428E-13  2.522250387716E-13
  1.770495052230E-13  1.237883039145E-13  8.620299675719E-14  5.978637128208E-14
  4.129505683871E-14  2.840460041102E-14  1.945595160416E-14  1.326989892017E-14
  9.011809299157E-15  6.093449766388E-15  4.102028646927E-15  2.749130923233E-15
  1.834130463605E-15  1.218090610246E-15  8.052296378059E-16  5.298178874891E-16
  3.469571339930E-16  2.261219385955E-16  1.466568272198E-16  9.465189357733E-17
  6.078524723360E-17  3.884034148731E-17  2.469207921044E-17  1.561692533039E-17
  9.825842896806E-18  6.149691680555E-18  3.828411564318E-18  2.370488318402E-18
  1.459764438272E-18  8.939742209555E-19  5.444219402053E-19  3.296745732462E-19
  1.984928860656E-19  1.188185347339E-19  7.070871112787E-20  4.182929028248E-20
  2.459664702299E-20  1.437565935641E-20  8.350343063604E-21  4.820292353472E-21
  2.765046158974E-21  1.576007726509E-21  8.924991267244E-22  5.021306586489E-22
  2.806410534168E-22  0.000000000000E+00  0.000000000000E+00  0.000000000000E+00
  0.000000000000E+00  0.000000000000E+00  0.000000000000E+00  0.000000000000E+00
  0.000000000000E+00
</data>
</radfunc>
</valence-charge>
<semilocal-potentials set="scalar_relativistic">
<slps n="2" l="s" rc="1.16056237431" eref="-2.92500223672">
<radfunc>
<data npts="256">
 -2.037603787513E+01 -2.037609206304E+01 -2.037623488156E+01 -2.037641191958E+01
 -2.037653549953E+01 -2.037649190442E+01 -2.037611899007E+01 -2.037528928721E+01
 -2.037371583806E+01 -2.037140840025E+01 -2.036814006679E+01 -2.036388505726E+01
 -2.035790050389E+01 -2.035081242524E+01 -2.034301008841E+01 -2.033327356361E+01
 -2.032123964580E+01 -2.030916816615E+01 -2.029497238734E+01 -2.027838549797E+01
 -2.025912620308E+01 -2.024159709276E+01 -2.022201274119E+01 -2.020021154245E+01
 -2.017602676774E+01 -2.014928618708E+01 -2.011981138591E+01 -2.009579959300E+01
 -2.007006413697E+01 -2.004252044292E+01 -2.001308026959E+01 -1.998165109988E+01
 -1.994813542508E+01 -1.991242990885E+01 -1.987442441428E+01 -1.983400087361E+01
 -1.979103197656E+01 -1.974537964944E+01 -1.971338017552E+01 -1.968007330825E+01
 -1.964540775254E+01 -1.960932871266E+01 -1.957177753225E+01 -1.953269130309E+01
 -1.949200244177E+01 -1.944963823505E+01 -1.940552035546E+01 -1.935956435060E+01
 -1.931167911163E+01 -1.926176632884E+01 -1.920971994562E+01 -1.915542562527E+01
 -1.909876024912E+01 -1.903959146878E+01 -1.897777733887E+01 -1.891316606080E+01
 -1.884559587061E+01 -1.877489510520E+01 -1.870088248082E+01 -1.862336761412E+01
 -1.854215180963E+01 -1.845702912776E+01 -1.836778773426E+01 -1.827421151672E+01
 -1.817608193655E+01 -1.807318006878E+01 -1.796528876826E+01 -1.790940525648E+01
 -1.785219489220E+01 -1.779363202033E+01 -1.773369150796E+01 -1.767234880818E+01
 -1.760958002152E+01 -1.754536195499E+01 -1.747967217853E+01 -1.741248907913E+01
 -1.734379191262E+01 -1.727356085359E+01 -1.720177704381E+01 -1.712842263960E+01
 -1.705348085876E+01 -1.697693602769E+01 -1.689877362928E+01 -1.681898035219E+01
 -1.673754414226E+01 -1.665445425629E+01 -1.656970131887E+01 -1.648327738244E+01
 -1.639517599073E+01 -1.630539224559E+01 -1.621392287693E+01 -1.612076631546E+01
 -1.602592276750E+01 -1.592939429103E+01 -1.583118487194E+01 -1.573130049919E+01
 -1.562974923738E+01 -1.552654129511E+01 -1.542168908733E+01 -1.531520728966E+01
 -1.520711288278E+01 -1.509742518469E+01 -1.498616586882E+01 -1.487335896601E+01
 -1.475903084827E+01 -1.464321019280E+01 -1.452592792463E+01 -1.440721713673E+01
 -1.428711298699E+01 -1.416565257165E+01 -1.404287477576E+01 -1.391882010174E+01
 -1.379353047783E+01 -1.366704904963E+01 -1.353941995834E+01 -1.341068811103E+01
 -1.328089894913E+01 -1.315009822303E+01 -1.301833178170E+01 -1.288564538817E+01
 -1.275208457299E+01 -1.261769453930E+01 -1.248252013509E+01 -1.234660590913E+01
 -1.220999626907E+01 -1.207273576108E+01 -1.193486949162E+01 -1.179644371271E+01
 -1.165750659245E+01 -1.151810919224E+01 -1.137830667154E+01 -1.123815973906E+01
 -1.109773636640E+01 -1.095711377601E+01 -1.081638070911E+01 -1.067563997168E+01
 -1.053501124639E+01 -1.039463414632E+01 -1.025467147237E+01 -1.011531262010E+01
 -9.976777065570E+00 -9.839317842457E+00 -9.703224907909E+00 -9.568828281856E+00
 -9.436500837080E+00 -9.306660616281E+00 -9.179772559826E+00 -9.056349545205E+00
 -8.936952672057E+00 -8.822190706236E+00 -8.712718764987E+00 -8.609237291602E+00
 -8.509492597497E+00 -8.410564473108E+00 -8.312529128305E+00 -8.215398036461E+00
 -8.119184462651E+00 -8.023901858735E+00 -7.929562863837E+00 -7.836178284428E+00
 -7.743756227543E+00 -7.652301432562E+00 -7.561814885862E+00 -7.472293785209E+00
 -7.383731905362E+00 -7.296120388591E+00 -7.209448947457E+00 -7.123707427008E+00
 -7.038887637161E+00 -6.954985341839E+00 -6.872002285410E+00 -6.789948148632E+00
 -6.708842345117E+00 -6.628715436267E+00 -6.549611817365E+00 -6.471592624123E+00
 -6.394701326191E+00 -6.318867052776E+00 -6.243951954878E+00 -6.169910891612E+00
 -6.096749367387E+00 -6.024455030356E+00 -5.953017758372E+00 -5.882427354604E+00
 -5.812673775255E+00 -5.743747117869E+00 -5.675637619375E+00 -5.608335651890E+00
 -5.541831715007E+00 -5.476116425019E+00 -5.411180504030E+00 -5.347014770082E+00
 -5.283610130136E+00 -5.220957576721E+00 -5.159048188175E+00 -5.097873131612E+00
 -5.037423667350E+00 -4.977691153517E+00 -4.918667049870E+00 -4.860342920284E+00
 -4.802710433797E+00 -4.745761364368E+00 -4.689487589679E+00 -4.633881089325E+00
 -4.578933942698E+00 -4.524638326799E+00 -4.470986514121E+00 -4.417970870688E+00
 -4.365583854271E+00 -4.313818012780E+00 -4.262665982824E+00 -4.212120488396E+00
 -4.162174339673E+00 -4.112820431885E+00 -4.064051744261E+00 -4.015861339011E+00
 -3.968242360345E+00 -3.921188033517E+00 -3.874691663890E+00 -3.828746636009E+00
 -3.783346412695E+00 -3.738484534137E+00 -3.694154617007E+00 -3.650350353569E+00
 -3.607065510805E+00 -3.564293929544E+00 -3.522029523603E+00 -3.480266278929E+00
 -3.438998252758E+00 -3.398219572775E+00 -3.357924436283E+00 -3.318107109388E+00
 -3.278761926182E+00 -3.239883287941E+00 -3.201465662333E+00 -3.163503582632E+00
 -3.125991646941E+00 -3.088924517423E+00 -3.052296919548E+00 -3.016103641340E+00
 -2.980339532638E+00 -2.944999504363E+00 -2.910078527800E+00 -2.875571633879E+00
 -2.841473912475E+00 -2.807780511707E+00 -2.774486637254E+00 -2.741587551673E+00
 -2.709078573725E+00 -2.676955077714E+00 -2.645212492831E+00 -2.613846302497E+00
 -2.582852043727E+00 -2.552225306493E+00 -2.521961733085E+00 -2.492057017514E+00
</data>
</radfunc>
</slps>
<slps n="2" l="p" rc="1.56380032527" eref="-1.71072027609">
<radfunc>
<data npts="256">
 -2.575974307166E+01 -2.575972280893E+01 -2.575964294470E+01 -2.575944805552E+01
 -2.575905366510E+01 -2.575832746405E+01 -2.575708205852E+01 -2.575524981202E+01
 -2.575242610686E+01 -2.574876053711E+01 -2.574395341245E+01 -2.573801630144E+01
 -2.572998558059E+01 -2.572074502357E+01 -2.571077665402E+01 -2.569852566230E+01
 -2.568357038761E+01 -2.566870423187E+01 -2.565133706434E+01 -2.563114854333E+01
 -2.560779562201E+01 -2.558658978819E+01 -2.556292676580E+01 -2.553659812297E+01
 -2.550738439861E+01 -2.547505392740E+01 -2.543936125170E+01 -2.541022877097E+01
 -2.537894153686E+01 -2.534537609255E+01 -2.530940158167E+01 -2.527087877587E+01
 -2.522965896451E+01 -2.518558269106E+01 -2.513847831808E+01 -2.508816039921E+01
 -2.503442783317E+01 -2.497706177149E+01 -2.493668202049E+01 -2.489450533035E+01
 -2.485045050065E+01 -2.480443102204E+01 -2.475635462079E+01 -2.470612276867E+01
 -2.465363015780E+01 -2.459876414071E+01 -2.454140413753E+01 -2.448142101324E+01
 -2.441867643030E+01 -2.435302218432E+01 -2.428429953312E+01 -2.421233853303E+01
 -2.413695739978E+01 -2.405796191505E+01 -2.397514490343E+01 -2.388828580766E+01
 -2.379715039213E+01 -2.370149060539E+01 -2.360104463065E+01 -2.349553714941E+01
 -2.338467983536E+01 -2.326817208536E+01 -2.314570197971E+01 -2.301694744766E+01
 -2.288157759602E+01 -2.273925414167E+01 -2.258963287468E+01 -2.251197672504E+01
 -2.243236507001E+01 -2.235075382330E+01 -2.226709876522E+01 -2.218135557023E+01
 -2.209347983000E+01 -2.200342707182E+01 -2.191115277232E+01 -2.181661236667E+01
 -2.171976125341E+01 -2.162055479557E+01 -2.151894831831E+01 -2.141489710422E+01
 -2.130835638666E+01 -2.119928134257E+01 -2.108762708536E+01 -2.097334865942E+01
 -2.085640103714E+01 -2.073673911984E+01 -2.061431774384E+01 -2.048909169288E+01
 -2.036101571822E+01 -2.023004456754E+01 -2.009613302401E+01 -1.995923595644E+01
 -1.981930838194E+01 -1.967630554196E+01 -1.953018299287E+01 -1.938089671226E+01
 -1.922840322185E+01 -1.907265972825E+01 -1.891362428273E+01 -1.875125596118E+01
 -1.858551506549E+01 -1.841636334799E+01 -1.824376426027E+01 -1.806768322829E+01
 -1.788808795546E+01 -1.770494875610E+01 -1.751823892120E+01 -1.732793511933E+01
 -1.713401783533E+01 -1.693647184978E+01 -1.673528676255E+01 -1.653045756386E+01
 -1.632198525657E+01 -1.610987753363E+01 -1.589414951457E+01 -1.567482454540E+01
 -1.545193506587E+01 -1.522552354838E+01 -1.499564351265E+01 -1.476236061967E+01
 -1.452575384872E+01 -1.428591676013E+01 -1.404295884616E+01 -1.379700697129E+01
 -1.354820690228E+01 -1.329672492671E+01 -1.304274955728E+01 -1.278649331689E+01
 -1.252819459691E+01 -1.226811957795E+01 -1.200656419849E+01 -1.174385615170E+01
 -1.148035688482E+01 -1.121646356785E+01 -1.095261098916E+01 -1.068927332418E+01
 -1.042696571022E+01 -1.016624554491E+01 -9.907713408116E+00 -9.652013488265E+00
 -9.399833374130E+00 -9.151903053672E+00 -8.908992944106E+00 -8.671910763680E+00
 -8.441497048139E+00 -8.218619115626E+00 -8.004163295256E+00 -7.799025258867E+00
 -7.604098338455E+00 -7.420259705428E+00 -7.248354474404E+00 -7.089178782520E+00
 -6.943462101187E+00 -6.811843759253E+00 -6.694846843978E+00 -6.592857492751E+00
 -6.506104005907E+00 -6.434634243555E+00 -6.378295068944E+00 -6.336713927170E+00
 -6.309283434838E+00 -6.295149676725E+00 -6.293204854115E+00 -6.302084787198E+00
 -6.320171608082E+00 -6.345601790411E+00 -6.376279467825E+00 -6.409894821885E+00
 -6.443947200770E+00 -6.475772594813E+00 -6.502575171799E+00 -6.521462783701E+00
 -6.529486703438E+00 -6.523686188313E+00 -6.501140960852E+00 -6.459032755820E+00
 -6.394681479433E+00 -6.318867052776E+00 -6.243951954878E+00 -6.169910891612E+00
 -6.096749367387E+00 -6.024455030356E+00 -5.953017758372E+00 -5.882427354604E+00
 -5.812673775255E+00 -5.743747117869E+00 -5.675637619375E+00 -5.608335651890E+00
 -5.541831715007E+00 -5.476116425019E+00 -5.411180504030E+00 -5.347014770082E+00
 -5.283610130136E+00 -5.220957576721E+00 -5.159048188175E+00 -5.097873131612E+00
 -5.037423667350E+00 -4.977691153517E+00 -4.918667049870E+00 -4.860342920284E+00