<?xml version="1.0" encoding="UTF-8" ?>
<psml version="1.1" energy_unit="hartree" length_unit="bohr"
 uuid="1645a8d0-1d60-11e8-4a92-dd405bf778b8"
 xmlns="http://esl.cecam.org/PSML/ns/1.1">
<provenance creator="ONCVPSP-3.3.0+psml-3.3.0-73 (scalar-relativistic)"
 date="2018-03-01">
<annotation action="semilocal-pseudopotential-generation"
 action-cont="projectors-generation" />
<input-file name="oncvpsp-input">
<![CDATA[# atsym z nc nv iexc psfile
Y 39 6 4 -116133 upf
# n l f
1 0 2.0
2 0 2.0
2 1 6.0
3 0 2.0
3 1 6.0
3 2 10.0
4 0 2.0
4 1 6.0
4 2 1.0
5 0 2.0
# lmax
2
# l rc ep ncon nbas qcut
0 1.6 0.0 4 7 7.0
1 1.5 0.0 4 9 8.6
2 1.55 0.0 4 9 8.8
# lloc lpopt rc5 dvloc0
4 5 1.5 0.0
# l nproj debl
0 2 1.0
1 2 2.0
2 2 3.2
# icmod fcfact
3 4 1.35
# epsh1 epsh2 depsh
-12.0 12.0 0.02
# rlmax drl
6.0 0.01
 0
]]>
</input-file>
</provenance>
<pseudo-atom-spec atomic-label="Y" atomic-number="39" z-pseudo="11"
 flavor="Hamann&apos;s oncvpsp" relativity="scalar" spin-dft="no"
 core-corrections="yes">
<annotation pseudo-energy="-38.3895949728" />
<exchange-correlation>
<annotation oncvpsp-xc-code="-116133" oncvpsp-xc-type="libxc-interface" />
<libxc-info number-of-functionals="2">
<functional name="Perdew, Burke &amp; Ernzerhof SOL (GGA)" type="exchange"
 id="116" />
<functional name="Perdew, Burke &amp; Ernzerhof SOL (GGA)" type="correlation"
 id="133" />
</libxc-info>
</exchange-correlation>
<valence-configuration total-valence-charge="11">
<shell n="4" l="s" occupation="2" />
<shell n="4" l="p" occupation="6" />
<shell n="4" l="d" occupation="1" />
<shell n="5" l="s" occupation="2" />
</valence-configuration>
</pseudo-atom-spec>
<grid npts="457">
<annotation type="sampled from oncvpsp log grid"
 recipe="r(i:1..N) = r1*exp(a*(i-1)) + r=0; resampled"
 recipe-cont="r1: scale; a: step" scale="0.128205128205E-04"
 step="0.119285708653E-01" delta="0.500000000000E-02" rmax="44.2295149952" />
<grid-data>
  0.000000000000E+00  5.050590548830E-03  1.008815826517E-02  1.513384605994E-02
  2.015030444445E-02  2.527617477690E-02  3.059141388125E-02  3.572285924000E-02
  4.073163561015E-02  4.589199894225E-02  5.109302162005E-02  5.620897780706E-02
  6.183719588184E-02  6.722230113325E-02  7.307636941178E-02  7.849826132568E-02
  8.432242981903E-02  8.950466576223E-02  9.500538836940E-02  1.008441709977E-01
  1.070417899317E-01  1.122730220474E-01  1.177599093560E-01  1.235149459651E-01
  1.295512365812E-01  1.358825263501E-01  1.425232321553E-01  1.477158848294E-01
  1.530977251985E-01  1.586756460758E-01  1.644567914052E-01  1.704485654110E-01
  1.766586420811E-01  1.830949749956E-01  1.897658075127E-01  1.966796833273E-01
  2.038454574128E-01  2.112723073622E-01  2.163732659512E-01  2.215973820843E-01
  2.269476292774E-01  2.324270528386E-01  2.380387716024E-01  2.437859797039E-01
  2.496719483979E-01  2.557000279200E-01  2.618736493941E-01  2.681963267851E-01
  2.746716588990E-01  2.813033314314E-01  2.880951190655E-01  2.950508876202E-01
  3.021745962510E-01  3.094702997028E-01  3.169421506189E-01  3.245944019034E-01
  3.324314091430E-01  3.404576330853E-01  3.486776421785E-01  3.570961151713E-01
  3.657178437760E-01  3.745477353961E-01  3.835908159195E-01  3.928522325791E-01
  4.023372568825E-01  4.120512876126E-01  4.219998539007E-01  4.270638521475E-01
  4.321886183733E-01  4.373748817938E-01  4.426233803753E-01  4.479348609398E-01
  4.533100792711E-01  4.587498002224E-01  4.642547978250E-01  4.698258553989E-01
  4.754637656637E-01  4.811693308517E-01  4.869433628219E-01  4.927866831758E-01
  4.987001233739E-01  5.046845248544E-01  5.107407391526E-01  5.168696280224E-01
  5.230720635587E-01  5.293489283214E-01  5.357011154613E-01  5.421295288468E-01
  5.486350831930E-01  5.552187041913E-01  5.618813286416E-01  5.686239045853E-01
  5.754473914403E-01  5.823527601376E-01  5.893409932592E-01  5.964130851783E-01
  6.035700422005E-01  6.108128827069E-01  6.181426372994E-01  6.255603489470E-01
  6.330670731343E-01  6.406638780119E-01  6.483518445481E-01  6.561320666827E-01
  6.640056514829E-01  6.719737193007E-01  6.800374039323E-01  6.881978527794E-01
  6.964562270128E-01  7.048137017370E-01  7.132714661578E-01  7.218307237517E-01
  7.304926924367E-01  7.392586047460E-01  7.481297080029E-01  7.571072644989E-01
  7.661925516729E-01  7.753868622930E-01  7.846915046405E-01  7.941078026962E-01
  8.036370963286E-01  8.132807414845E-01  8.230401103823E-01  8.329165917069E-01
  8.429115908074E-01  8.530265298971E-01  8.632628482558E-01  8.736220024349E-01
  8.841054664641E-01  8.947147320617E-01  9.054513088464E-01  9.163167245526E-01
  9.273125252472E-01  9.384402755502E-01  9.497015588568E-01  9.610979775631E-01
  9.726311532938E-01  9.843027271334E-01  9.961143598590E-01  1.008067732177E+00
  1.020164544963E+00  1.032406519503E+00  1.044795397737E+00  1.057332942510E+00
  1.070020937820E+00  1.082861189074E+00  1.095855523343E+00  1.109005789623E+00
  1.122313859098E+00  1.135781625407E+00  1.149411004912E+00  1.163203936971E+00
  1.177162384215E+00  1.191288332826E+00  1.205583792819E+00  1.220050798333E+00
  1.234691407913E+00  1.249507704808E+00  1.264501797266E+00  1.279675818833E+00
  1.295031928659E+00  1.310572311803E+00  1.326299179545E+00  1.342214769699E+00
  1.358321346936E+00  1.374621203099E+00  1.391116657536E+00  1.407810057426E+00
  1.424703778116E+00  1.441800223453E+00  1.459101826134E+00  1.476611048048E+00
  1.494330380625E+00  1.512262345192E+00  1.530409493334E+00  1.548774407254E+00
  1.567359700141E+00  1.586168016543E+00  1.605202032742E+00  1.624464457135E+00
  1.643958030620E+00  1.663685526988E+00  1.683649753311E+00  1.703853550351E+00
  1.724299792955E+00  1.744991390471E+00  1.765931287156E+00  1.787122462602E+00
  1.808567932154E+00  1.830270747339E+00  1.852233996308E+00  1.874460804263E+00
  1.896954333914E+00  1.919717785921E+00  1.942754399352E+00  1.966067452145E+00
  1.989660261570E+00  2.013536184709E+00  2.037698618926E+00  2.062151002353E+00
  2.086896814381E+00  2.111939576154E+00  2.137282851067E+00  2.162930245280E+00
  2.188885408224E+00  2.215152033122E+00  2.241733857520E+00  2.268634663810E+00
  2.295858279776E+00  2.323408579133E+00  2.351289482083E+00  2.379504955868E+00
  2.408059015338E+00  2.436955723522E+00  2.466199192204E+00  2.495793582511E+00
  2.525743105501E+00  2.556052022767E+00  2.586724647040E+00  2.617765342805E+00
  2.649178526918E+00  2.680968669241E+00  2.713140293272E+00  2.745697976791E+00
  2.778646352513E+00  2.811990108743E+00  2.845733990048E+00  2.879882797929E+00
  2.914441391504E+00  2.949414688202E+00  2.984807664460E+00  3.020625356434E+00
  3.056872860711E+00  3.093555335040E+00  3.130677999060E+00  3.168246135049E+00
  3.206265088669E+00  3.244740269733E+00  3.283677152970E+00  3.323081278806E+00
  3.362958254151E+00  3.403313753201E+00  3.444153518240E+00  3.485483360459E+00
  3.527309160784E+00  3.569636870713E+00  3.612472513162E+00  3.655822183320E+00
  3.699692049520E+00  3.744088354114E+00  3.789017414363E+00  3.834485623336E+00
  3.880499450816E+00  3.927065444226E+00  3.974190229556E+00  4.021880512311E+00
  4.070143078459E+00  4.118984795400E+00  4.168412612945E+00  4.218433564300E+00
  4.269054767072E+00  4.320283424277E+00  4.372126825368E+00  4.424592347273E+00
  4.477687455440E+00  4.531419704905E+00  4.585796741364E+00  4.640826302260E+00
  4.696516217887E+00  4.752874412502E+00  4.809908905452E+00  4.867627812318E+00
  4.926039346065E+00  4.985151818218E+00  5.044973640037E+00  5.105513323717E+00
  5.166779483602E+00  5.228780837405E+00  5.291526207454E+00  5.355024521943E+00
  5.419284816207E+00  5.484316234001E+00  5.550128028809E+00  5.616729565155E+00
  5.684130319937E+00  5.752339883776E+00  5.821367962381E+00  5.891224377930E+00
  5.961919070465E+00  6.033462099311E+00  6.105863644502E+00  6.179134008236E+00
  6.253283616335E+00  6.328323019731E+00  6.404262895968E+00  6.481114050720E+00
  6.558887419328E+00  6.637594068360E+00  6.717245197181E+00  6.797852139547E+00
  6.879426365221E+00  6.961979481604E+00  7.045523235383E+00  7.130069514208E+00
  7.215630348378E+00  7.302217912559E+00  7.389844527509E+00  7.478522661840E+00
  7.568264933782E+00  7.659084112987E+00  7.750993122343E+00  7.844005039811E+00
  7.938133100289E+00  8.033390697492E+00  8.129791385862E+00  8.227348882492E+00
  8.326077069082E+00  8.425989993911E+00  8.527101873838E+00  8.629427096324E+00
  8.732980221480E+00  8.837775984138E+00  8.943829295948E+00  9.051155247499E+00
  9.159769110469E+00  9.269686339795E+00  9.380922575872E+00  9.493493646783E+00
  9.607415570544E+00  9.722704557391E+00  9.839377012079E+00  9.957449536224E+00
  1.007693893066E+01  1.019786219783E+01  1.032023654420E+01  1.044407938273E+01
  1.056940833532E+01  1.069624123535E+01  1.082459613017E+01  1.095449128373E+01
  1.108594517914E+01  1.121897652129E+01  1.135360423954E+01  1.148984749042E+01
  1.162772566030E+01  1.176725836823E+01  1.190846546865E+01  1.205136705427E+01
  1.219598345892E+01  1.234233526043E+01  1.249044328355E+01  1.264032860296E+01
  1.279201254619E+01  1.294551669675E+01  1.310086289711E+01  1.325807325187E+01
  1.341717013089E+01  1.357817617246E+01  1.374111428653E+01  1.390600765797E+01
  1.407287974987E+01  1.424175430687E+01  1.441265535855E+01  1.458560722285E+01
  1.476063450953E+01  1.493776212364E+01  1.511701526912E+01  1.529841945235E+01
  1.548200048578E+01  1.566778449161E+01  1.585579790551E+01  1.604606748038E+01
  1.623862029014E+01  1.643348373362E+01  1.663068553843E+01  1.683025376489E+01
  1.703221681007E+01  1.723660341179E+01  1.744344265273E+01  1.765276396456E+01
  1.786459713214E+01  1.807897229772E+01  1.829591996529E+01  1.851547100488E+01
  1.873765665694E+01  1.896250853682E+01  1.919005863926E+01  1.942033934293E+01
  1.965338341505E+01  1.988922401603E+01  2.012789470422E+01  2.036942944067E+01
  2.061386259396E+01  2.086122894509E+01  2.111156369243E+01  2.136490245674E+01
  2.162128128622E+01  2.188073666165E+01  2.214330550159E+01  2.240902516761E+01
  2.267793346962E+01  2.295006867126E+01  2.322546949531E+01  2.350417512926E+01
  2.378622523081E+01  2.407165993358E+01  2.436051985278E+01  2.465284609101E+01
  2.494868024411E+01  2.524806440704E+01  2.555104117992E+01  2.585765367408E+01
  2.616794551817E+01  2.648196086439E+01  2.679974439476E+01  2.712134132750E+01
  2.744679742343E+01  2.777615899251E+01  2.810947290042E+01  2.844678657522E+01
  2.878814801412E+01  2.913360579029E+01  2.948320905978E+01  2.983700756849E+01
  3.019505165932E+01  3.055739227923E+01  3.092408098658E+01  3.129516995842E+01
  3.167071199792E+01  3.205076054189E+01  3.243536966840E+01  3.282459410442E+01
  3.321848923367E+01  3.361711110447E+01  3.402051643773E+01  3.442876263498E+01
  3.484190778660E+01  3.526001068004E+01  3.568313080820E+01  3.611132837790E+01
  3.654466431843E+01  3.698320029026E+01  3.742699869374E+01  3.787612267806E+01
  3.833063615020E+01  3.879060378400E+01  3.925609102941E+01  3.972716412176E+01
  4.020389009122E+01  4.068633677232E+01  4.117457281359E+01  4.166866768735E+01
  4.216869169960E+01  4.267471599999E+01  4.318681259199E+01  4.370505434310E+01
  4.422951499521E+01
</grid-data>
</grid>
<valence-charge total-charge="11" is-unscreening-charge="yes"
 rescaled-to-z-pseudo="no">
<radfunc>
<data npts="457">
  4.766804738254E-02  4.779940647278E-02  4.819237265616E-02  4.884894235912E-02
  4.976380960955E-02  5.097032392621E-02  5.251387743663E-02  5.428945895647E-02
  5.629621861116E-02  5.865020940853E-02  6.132137580416E-02  6.424618221276E-02
  6.781079943947E-02  7.156855288124E-02  7.604723147233E-02  8.056959274110E-02
  8.583853871872E-02  9.089361502570E-02  9.664709080280E-02  1.032025967820E-01
  1.106807750150E-01  1.174214708248E-01  1.249251855527E-01  1.332859843827E-01
  1.426107856774E-01  1.530212791215E-01  1.646561393097E-01  1.742801338445E-01
  1.847562581124E-01  1.961672860938E-01  2.086047441602E-01  2.221698701487E-01
  2.369746702456E-01  2.531430803628E-01  2.708122380961E-01  2.901338703524E-01
  3.112758001964E-01  3.344235742486E-01  3.510701675528E-01  3.687648592838E-01
  3.875780493723E-01  4.075848697119E-01  4.288654552229E-01  4.515052199152E-01
  4.755951358073E-01  5.012320120444E-01  5.285187709578E-01  5.575647171244E-01
  5.884857946990E-01  6.214048274012E-01  6.564517345304E-01  6.937637152438E-01
  7.334853920649E-01  7.757689031727E-01  8.207739314603E-01  8.686676566337E-01
  9.196246147527E-01  9.738264475946E-01  1.031461522063E+00  1.092724397575E+00
  1.157815116997E+00  1.226938294222E+00  1.300301969081E+00  1.378116197854E+00
  1.460591345425E+00  1.547936043141E+00  1.640354774878E+00  1.688528984652E+00
  1.738045052793E+00  1.788926042081E+00  1.841194144058E+00  1.894870549537E+00
  1.949975310672E+00  2.006527194340E+00  2.064543526623E+00  2.124040028199E+00
  2.185030640459E+00  2.247527342262E+00  2.311539957212E+00  2.377075951448E+00
  2.444140221970E+00  2.512734875585E+00  2.582858998644E+00  2.654508417816E+00
  2.727675452215E+00  2.802348657343E+00  2.878512561359E+00  2.956147394353E+00
  3.035228811408E+00  3.115727610373E+00  3.197609445427E+00  3.280834537675E+00
  3.365357384174E+00  3.451126466975E+00  3.538083963970E+00  3.626165463491E+00
  3.715299684863E+00  3.805408207275E+00  3.896405209585E+00  3.988197223858E+00
  4.080682905686E+00  4.173752824514E+00  4.267289277435E+00  4.361166130094E+00
  4.455248688520E+00  4.549393605889E+00  4.643448828334E+00  4.737253584051E+00
  4.830638420009E+00  4.923425290634E+00  5.015427702792E+00  5.106450921368E+00
  5.196292239609E+00  5.284741318197E+00  5.371580596791E+00  5.456585781443E+00
  5.539526410855E+00  5.620166504005E+00  5.698265291044E+00  5.773578028721E+00
  5.845856900859E+00  5.914852003520E+00  5.980312413635E+00  6.041987338832E+00
  6.099627345166E+00  6.152985658312E+00  6.201819532639E+00  6.245891681363E+00
  6.284971759786E+00  6.318837892410E+00  6.347278233547E+00  6.370092549893E+00
  6.387093812464E+00  6.398109784336E+00  6.402984589706E+00  6.401580249089E+00
  6.393778164835E+00  6.379480540722E+00  6.358611719102E+00  6.331119418981E+00
  6.296975858550E+00  6.256178745907E+00  6.208752122264E+00  6.154747042514E+00
  6.094242078941E+00  6.027343634815E+00  5.954186055811E+00  5.874931528533E+00
  5.789769756878E+00  5.698917408666E+00  5.602617326740E+00  5.501137500738E+00
  5.394769797913E+00  5.283828453762E+00  5.168648325862E+00  5.049582917159E+00
  4.927002178163E+00  4.801290100916E+00  4.672842121364E+00  4.542062350759E+00
  4.409360660977E+00  4.275149653001E+00  4.139841542277E+00  4.003844998984E+00
  3.867561985335E+00  3.731384635629E+00  3.595692227687E+00  3.460848296269E+00
  3.327197939869E+00  3.195065371703E+00  3.064751763550E+00  2.936533427254E+00
  2.810660373147E+00  2.687355277330E+00  2.566813257633E+00  2.449203662456E+00
  2.334673157907E+00  2.223346733965E+00  2.115327638539E+00  2.010698374657E+00
  1.909522455062E+00  1.811846809531E+00  1.717702578665E+00  1.627105987832E+00
  1.540059230376E+00  1.456551373876E+00  1.376559276782E+00  1.300048510120E+00
  1.226974278234E+00  1.157282333079E+00  1.090909877017E+00  1.027786449168E+00
  9.678347916956E-01  9.109716916246E-01  8.571087951059E-01  8.061533910967E-01
  7.580091618870E-01  7.125768982887E-01  6.697551776748E-01  6.294410034136E-01
  5.915304045832E-01  5.559189951771E-01  5.225024923206E-01  4.911771933091E-01
  4.618404115588E-01  4.343908718234E-01  4.087290652769E-01  3.847575653016E-01
  3.623813050387E-01  3.415078179726E-01  3.220474430139E-01  3.039134957327E-01
  2.870224075577E-01  2.712938349128E-01  2.566507403835E-01  2.430194481064E-01
  2.303296756374E-01  2.185145445689E-01  2.075105721367E-01  1.972576459725E-01
  1.876989840193E-01  1.787810814512E-01  1.704536462269E-01  1.626695246878E-01
  1.553846184055E-01  1.485577933032E-01  1.421507819479E-01  1.361280798325E-01
  1.304568364328E-01  1.251067418727E-01  1.200499100049E-01  1.152607588096E-01
  1.107158890368E-01  1.063939620205E-01  1.022755775813E-01  9.834315288814E-02
  9.458080308158E-02  9.097422437247E-02  8.751058023151E-02  8.417839118220E-02
  8.096742860892E-02  7.786861289701E-02  7.487391613608E-02  7.197626954206E-02
  6.916947568883E-02  6.644812558543E-02  6.380752058966E-02  6.124359911156E-02
  5.875286803012E-02  5.633233872266E-02  5.397946758658E-02  5.169210091803E-02
  4.946842400024E-02  4.730691424426E-02  4.520629821804E-02  4.316551239406E-02
  4.118366744132E-02  3.926001588502E-02  3.739392295473E-02  3.558484044117E-02
  3.383228338129E-02  3.213580939164E-02  3.049500047162E-02  2.890944709998E-02
  2.737873445117E-02  2.590243056216E-02  2.448007628558E-02  2.311117687195E-02
  2.179519503141E-02  2.053154533567E-02  1.931958983155E-02  1.815863475060E-02
  1.704792821256E-02  1.598665883518E-02  1.497395517666E-02  1.400888594163E-02
  1.309046095396E-02  1.221763274853E-02  1.138929886140E-02  1.060430473089E-02
  9.861447188562E-03  9.159478502938E-03  8.497110931170E-03  7.873021723844E-03
  7.285858517604E-03  6.734245040114E-03  6.216787043181E-03  5.732078373606E-03
  5.278707088064E-03  4.855261518340E-03  4.460336196625E-03  4.092537556893E-03
  3.750489337253E-03  3.432837618965E-03  3.138255449802E-03  2.865447012083E-03
  2.613151308281E-03  2.380145349216E-03  2.165246841048E-03  1.967316377253E-03
  1.785259150425E-03  1.618026205892E-03  1.464615264872E-03  1.324071149136E-03
  1.195485842184E-03  1.077998223654E-03  9.707935144775E-04  8.731024700807E-04
  7.842003580592E-04  7.034057552085E-04  6.300791968176E-04  5.636217087988E-04
  5.034732506481E-04  4.491110945207E-04  4.000481629316E-04  3.558313448357E-04
  3.160398071584E-04  2.802833162921E-04  2.482005816814E-04  2.194576314188E-04
  1.937462277911E-04  1.707823289515E-04  1.503046013647E-04  1.320729863560E-04
  1.158673230036E-04  1.014860287079E-04  8.874483804825E-05  7.747559996824E-05
  6.752513289123E-05  5.875413703950E-05  5.103616298672E-05  4.425663529874E-05
  3.831192999166E-05  3.310850444518E-05  2.856207834272E-05  2.459686415638E-05
  2.114484565096E-05  1.814510284043E-05  1.554318179178E-05  1.329050763331E-05
  1.134383908775E-05  9.664762815918E-06  8.219225825275E-06  6.977104171228E-06
  5.911806158615E-06  4.999908238132E-06  4.220821788056E-06  3.556488976562E-06
  2.991105914371E-06  2.510871331451E-06  2.103759044845E-06  1.759312526805E-06
  1.468459932559E-06  1.223348004405E-06  1.017193332272E-06  8.441495194833E-07
  6.991888750015E-07  5.779973288965E-07  4.768813450694E-07  3.926856834495E-07
  3.227209419993E-07  2.646998861414E-07  2.166816489312E-07  1.770229588269E-07
  1.443356227618E-07  1.174495599766E-07  9.538074642511E-08  7.730349028705E-08
  6.252651607050E-08  5.047238788284E-08  4.065985168435E-08  3.268872175184E-08
  2.622697825871E-08  2.099978094293E-08  1.678013843901E-08  1.338100416622E-08
  1.064859788246E-08  8.456777331169E-09  6.702307031091E-09  5.300891392214E-09
  4.183857189643E-09  3.295386188606E-09  2.590212580831E-09  2.031712047448E-09
  1.590319879358E-09  1.242224824551E-09  9.682933435166E-10  7.531858775998E-10
  5.846326981629E-10  4.528420226608E-10  3.500174621836E-10  2.699655982253E-10
  2.077776590132E-10  1.595719531156E-10  1.222859870932E-10  9.350910365179E-11
  7.134807890149E-11  5.431945721585E-11  4.126351922803E-11  3.127570686728E-11
  2.365209850754E-11  1.784616261329E-11  1.343454141630E-11  1.009004563766E-11
  7.560392789212E-12  5.651508438502E-12  4.214443201617E-12  3.135147545651E-12
  2.326499605222E-12  1.722104704685E-12  1.271484577236E-12  9.363538924901E-13
  6.877453635087E-13  5.037954584204E-13  3.680430934852E-13  2.681256762251E-13
  1.947821640645E-13  1.410927223586E-13  1.019004546805E-13  7.337193508776E-14
  5.211585009568E-15  3.479288692829E-15  2.312218774696E-15  1.529542230704E-15
  1.007080286523E-15  6.599521946425E-16  4.304096594142E-16  2.793494230099E-16
  1.804199545921E-16  1.159489598951E-16  7.414277013476E-17  4.716982588772E-17
  2.985566750730E-17  1.879877530563E-17  1.177458134450E-17  7.335793467929E-18
  4.545761503359E-18  2.801534760958E-18  1.717065062015E-18  1.046526087093E-18
  6.342446205510E-19  3.821883595903E-19  2.289719029000E-19  1.363768922456E-19
  8.074630542903E-20  4.752223405758E-20  2.779918220178E-20  1.616205012479E-20
  9.338089106032E-21  5.361473608031E-21  3.058735616205E-21  1.733795141149E-21
  9.763784547755E-22  0.000000000000E+00  0.000000000000E+00  0.000000000000E+00
  0.000000000000E+00
</data>
</radfunc>
</valence-charge>
<pseudocore-charge matching-radius="0.873622002435"
 number-of-continuous-derivatives="4">
<annotation model-charge-form="Teter function with specified parameters" />
<radfunc>
<data npts="290">
  2.687077783571E+01  2.686922096446E+01  2.686456690154E+01  2.685680215411E+01
  2.684600613357E+01  2.683180986520E+01  2.681371582665E+01  2.679299509282E+01
  2.676969492943E+01  2.674252068009E+01  2.671188731493E+01  2.667858693240E+01
  2.663833592374E+01  2.659629135516E+01  2.654668511621E+01  2.649713520782E+01
  2.644006745635E+01  2.638596375116E+01  2.632512975406E+01  2.625674593583E+01
  2.617989773238E+01  2.611164360526E+01  2.603674766145E+01  2.595458474217E+01
  2.586447528593E+01  2.576568154118E+01  2.565740372835E+01  2.556945329590E+01
  2.547529186200E+01  2.537450582104E+01  2.526665786964E+01  2.515128625914E+01
  2.502790413323E+01  2.489599897512E+01  2.475503219254E+01  2.460443887330E+01
  2.444362774866E+01  2.427198140692E+01  2.415121442682E+01  2.402514981506E+01
  2.389358613609E+01  2.375631741014E+01  2.361313335514E+01  2.346381967735E+01
  2.330815841548E+01  2.314592834309E+01  2.297690543478E+01  2.280086340159E+01
  2.261757430156E+01  2.242680923128E+01  2.222833910502E+01  2.202193552758E+01
  2.180737176766E+01  2.158442383829E+01  2.135287169109E+01  2.111250053074E+01
  2.086310225638E+01  2.060447703576E+01  2.033643501797E+01  2.005879818986E+01
  1.977140238035E+01  1.947409941602E+01  1.916675943007E+01  1.884927332521E+01
  1.852155538935E+01  1.818354606070E+01  1.783521483652E+01  1.765717767381E+01
  1.747656331692E+01  1.729337750151E+01  1.710762837158E+01  1.691932658392E+01
  1.672848541393E+01  1.653512086233E+01  1.633925176269E+01  1.614089988946E+01
  1.594009006629E+01  1.573685027438E+01  1.553121176040E+01  1.532320914381E+01
  1.511288052314E+01  1.490026758087E+01  1.468541568644E+01  1.446837399700E+01
  1.424919555545E+01  1.402793738516E+01  1.380466058099E+01  1.357943039592E+01
  1.335231632277E+01  1.312339217041E+01  1.289273613374E+01  1.266043085685E+01
  1.242656348857E+01  1.219122572981E+01  1.195451387178E+01  1.171652882442E+01
  1.147737613427E+01  1.123716599084E+01  1.099601322078E+01  1.075403726891E+01
  1.051136216529E+01  1.026811647757E+01  1.002443324754E+01  9.780449911225E+00
  9.536308201646E+00  9.292154033307E+00  9.048137367745E+00  8.804412059280E+00
  8.561135680270E+00  8.318469325155E+00  8.076577392688E+00  7.835627345754E+00
  7.595789448297E+00  7.357236478954E+00  7.120143421071E+00  6.884687128904E+00
  6.651045969926E+00  6.419399443279E+00  6.189927774571E+00  5.962811487366E+00
  5.738230951882E+00  5.516365911598E+00  5.297394988657E+00  5.081495169173E+00
  4.868841269733E+00  4.659605386644E+00  4.453956329691E+00  4.252059042411E+00
  4.054074011136E+00  3.860156665330E+00  3.670456771959E+00  3.485117826923E+00
  3.304276446804E+00  3.128061764454E+00  2.956594832144E+00  2.789988036263E+00
  2.628344527729E+00  2.471757672480E+00  2.320310526555E+00  2.174075340438E+00
  2.033113097415E+00  1.897473090755E+00  1.767192544567E+00  1.642296283137E+00
  1.522796453469E+00  1.408692305643E+00  1.299970035365E+00  1.196602692880E+00
  1.098550162018E+00  1.005759212839E+00  9.181636307775E-01  8.356844247410E-01
  7.582301159280E-01  6.856971085091E-01  6.179701425362E-01  5.549228286446E-01
  4.964182632479E-01  4.423097220082E-01  3.924414284062E-01  3.466493932541E-01
  3.047623199894E-01  2.666025695834E-01  2.319871779102E-01  2.007289174566E-01
  1.726373943501E-01  1.475201708344E-01  1.251839025761E-01  1.054354795443E-01
  8.808315869356E-02  7.293767632877E-02  5.981332783703E-02  4.852900247726E-02
  3.890916111817E-02  3.078474523325E-02  2.399400609993E-02  1.838324401466E-02
  1.380744842428E-02  1.013083118035E-02  7.227246633484E-03  4.980493981036E-03
  3.284499137576E-03  2.043375381439E-03  1.171364104852E-03  5.926591153249E-04
  2.411200539298E-04  5.988255900913E-05  8.747567313257E-07  2.425144631344E-05
  9.775891211170E-05  1.960445840557E-04  2.999267337440E-04  3.956399944355E-04
  4.740726966832E-04  5.300117959948E-04  5.614105260780E-04  5.686928466188E-04
  5.541072892268E-04  5.211409760082E-04  4.740024446841E-04  4.171795294352E-04
  3.550759978410E-04  2.917280219971E-04  2.305989638620E-04  1.744484820291E-04
  1.252697189801E-04  8.428639774100E-05  5.200012666760E-05  2.827714659829E-05
  1.246320091645E-05  3.515186992812E-06  1.387510383639E-07  9.219836675926E-07
  4.456799102012E-06  9.441350449424E-06  1.475883936523E-05  1.953019792844E-05
  2.314022314751E-05  2.523870005439E-05  2.571973721530E-05  2.468385637601E-05
  2.238824995603E-05  1.919100321026E-05  1.549496628309E-05  1.169638793947E-05
  8.142457236575E-06  5.100643409150E-06  2.741303016337E-06  1.133574954098E-06
  2.532464411914E-07  1.715853591530E-10  2.220579612022E-07  7.410688866045E-07
  1.379739530608E-06  1.983147380727E-06  2.435042142688E-06  2.666621114901E-06
  2.657704081422E-06  2.431079417783E-06  2.041632334675E-06  1.562424984925E-06
  1.070114440093E-06  6.319549726586E-07  2.961732915811E-07  8.681278546530E-08
  3.332356504291E-09  0.000000000000E+00  0.000000000000E+00  0.000000000000E+00
  0.000000000000E+00  0.000000000000E+00  0.000000000000E+00  0.000000000000E+00
  0.000000000000E+00  0.000000000000E+00  0.000000000000E+00  0.000000000000E+00
  0.000000000000E+00  0.000000000000E+00  0.000000000000E+00  0.000000000000E+00
  0.000000000000E+00  0.000000000000E+00  0.000000000000E+00  0.000000000000E+00
  0.000000000000E+00  0.000000000000E+00  0.000000000000E+00  0.000000000000E+00
  0.000000000000E+00  0.000000000000E+00  0.000000000000E+00  0.000000000000E+00
  0.000000000000E+00  0.000000000000E+00  0.000000000000E+00  0.000000000000E+00
  0.000000000000E+00  0.000000000000E+00  0.000000000000E+00  0.000000000000E+00
  0.000000000000E+00  0.000000000000E+00  0.000000000000E+00  0.000000000000E+00
  0.000000000000E+00  0.000000000000E+00  0.000000000000E+00  0.000000000000E+00
  0.000000000000E+00  0.000000000000E+00
</data>
</radfunc>
</pseudocore-charge>
<semilocal-potentials set="scalar_relativistic">
<slps n="4" l="s" rc="1.60520203274" eref="-1.76214485126">
<radfunc>
<data npts="290">
  5.040005125549E+01  5.036483900847E+01  5.025978627205E+01  5.008521596756E+01
  4.984393425713E+01  4.952918125119E+01  4.913210418315E+01  4.868292771149E+01
  4.818476877900E+01  4.761284958218E+01  4.697954549830E+01  4.630445189121E+01
  4.550643131347E+01  4.469315009617E+01  4.375924872864E+01  4.285300102840E+01
  4.184073494398E+01  4.091077354012E+01  3.989806181387E+01  3.879923876936E+01
  3.761167770129E+01  3.659655741187E+01  3.552316816324E+01  3.439166389306E+01
  3.320277566434E+01  3.195786245267E+01  3.065895226210E+01  2.965094702681E+01
  2.861549932672E+01  2.755424642534E+01  2.646904677612E+01  2.536197269965E+01
  2.423529943018E+01  2.309149054575E+01  2.193317990189E+01  2.076315029767E+01
  1.958430920968E+01  1.839966202982E+01  1.760818799973E+01  1.681642105350E+01
  1.602528675883E+01  1.523571026716E+01  1.444861224320E+01  1.366490484969E+01
  1.288548782686E+01  1.211124470386E+01  1.134303917804E+01  1.058171169484E+01
  9.828076258343E+00  9.082917498822E+00  8.346988019961E+00  7.621006044302E+00
  6.905653371346E+00  6.201573658465E+00  5.509371030563E+00  4.829609020348E+00
  4.162809837123E+00  3.509453958321E+00  2.869980034631E+00  2.244785096489E+00
  1.634225047015E+00  1.038615424175E+00  4.582324129898E-01 -1.066859129146E-01
 -6.559381423059E-01 -1.189357892641E+00 -1.706812014906E+00 -1.959518970457E+00
 -2.208198660486E+00 -2.452842908595E+00 -2.693445233541E+00 -2.930000780606E+00
 -3.162506252085E+00 -3.390959837044E+00 -3.615361140527E+00 -3.835711112371E+00
 -4.052011975792E+00 -4.264267155897E+00 -4.472481208279E+00 -4.676659747832E+00
 -4.876809377933E+00 -5.072937620122E+00 -5.265052844416E+00 -5.453164200359E+00
 -5.637281548939E+00 -5.817415395465E+00 -5.993576823495E+00 -6.165777429909E+00
 -6.334029261186E+00 -6.498344750961E+00 -6.658736658899E+00 -6.815218010929E+00
 -6.967802040871E+00 -7.116502133441E+00 -7.261331768687E+00 -7.402304467812E+00
 -7.539433740320E+00 -7.672733032593E+00 -7.802215677740E+00 -7.927894846717E+00
 -8.049783500723E+00 -8.167894344806E+00 -8.282239782651E+00 -8.392831872567E+00
 -8.499682284642E+00 -8.602802259122E+00 -8.702202566038E+00 -8.797893466179E+00
 -8.889884673499E+00 -8.978185319131E+00 -9.062803917172E+00 -9.143748332478E+00
 -9.221025750722E+00 -9.294642651040E+00 -9.364604781605E+00 -9.430917138512E+00
 -9.493583948408E+00 -9.552608655313E+00 -9.607993912136E+00 -9.659741577365E+00
 -9.707852717502E+00 -9.752327615759E+00 -9.793165787584E+00 -9.830366003596E+00
 -9.863926320480E+00 -9.893844120435E+00 -9.920116159733E+00 -9.942738627000E+00
 -9.961707211771E+00 -9.977017183965E+00 -9.988663484894E+00 -9.996640830498E+00
 -1.000094382756E+01 -1.000156710376E+01 -9.998505452500E+00 -9.991753993719E+00
 -9.981308351950E+00 -9.967164853253E+00 -9.949320742882E+00 -9.927774425837E+00
 -9.902525732858E+00 -9.873576214734E+00 -9.840929468218E+00 -9.804591497198E+00
 -9.764571113159E+00 -9.720880379305E+00 -9.673535103006E+00 -9.622555381481E+00
 -9.567966205794E+00 -9.509798128304E+00 -9.448087998703E+00 -9.382879773575E+00