<?xml version="1.0" encoding="UTF-8" ?>
<psml version="1.1" energy_unit="hartree" length_unit="bohr"
 uuid="f1ea59d0-1d65-11e8-7746-c85c7cddc9d5"
 xmlns="http://esl.cecam.org/PSML/ns/1.1">
<provenance creator="ONCVPSP-3.3.0+psml-3.3.0-73 (scalar-relativistic)"
 date="2018-03-01">
<annotation action="semilocal-pseudopotential-generation"
 action-cont="projectors-generation" />
<input-file name="oncvpsp-input">
<![CDATA[# atsym z nc nv iexc psfile
Sb 51 6 5 -116133 upf
# n l f
1 0 2.0
2 0 2.0
2 1 6.0
3 0 2.0
3 1 6.0
3 2 10.0
4 0 2.0
4 1 6.0
4 2 10.0
5 0 2.0
5 1 3.0
# lmax
2
# l rc ep ncon nbas qcut
0 1.3 0.0 4 8 9.4
1 1.3 0.0 4 8 9.6
2 1.5 0.0 4 8 10.0
# lloc lpopt rc5 dvloc0
4 5 1.3 0.0
# l nproj debl
0 2 1.0
1 2 3.0
2 2 1.6
# icmod fcfact rcfact
3 5.0 1.5
# epsh1 epsh2 depsh
-12.0 12.0 0.02
# rlmax drl
6.0 0.01
 0
]]>
</input-file>
</provenance>
<pseudo-atom-spec atomic-label="Sb" atomic-number="51" z-pseudo="23"
 flavor="Hamann&apos;s oncvpsp" relativity="scalar" spin-dft="no"
 core-corrections="yes">
<annotation pseudo-energy="-240.686606526" />
<exchange-correlation>
<annotation oncvpsp-xc-code="-116133" oncvpsp-xc-type="libxc-interface" />
<libxc-info number-of-functionals="2">
<functional name="Perdew, Burke &amp; Ernzerhof SOL (GGA)" type="exchange"
 id="116" />
<functional name="Perdew, Burke &amp; Ernzerhof SOL (GGA)" type="correlation"
 id="133" />
</libxc-info>
</exchange-correlation>
<valence-configuration total-valence-charge="23">
<shell n="4" l="s" occupation="2" />
<shell n="4" l="p" occupation="6" />
<shell n="4" l="d" occupation="10" />
<shell n="5" l="s" occupation="2" />
<shell n="5" l="p" occupation="3" />
</valence-configuration>
</pseudo-atom-spec>
<grid npts="457">
<annotation type="sampled from oncvpsp log grid"
 recipe="r(i:1..N) = r1*exp(a*(i-1)) + r=0; resampled"
 recipe-cont="r1: scale; a: step" scale="0.980392156863E-05"
 step="0.119285708653E-01" delta="0.500000000000E-02" rmax="43.9721684583" />
<grid-data>
  0.000000000000E+00  5.021204018428E-03  1.002946097687E-02  1.504579076758E-02
  2.027345795207E-02  2.543065629312E-02  3.077838077958E-02  3.594118822007E-02
  4.098057695047E-02  4.617247910357E-02  5.140528910190E-02  5.655251270478E-02
  6.221512900910E-02  6.763314664665E-02  7.265117934131E-02  7.804152433212E-02
  8.383180528246E-02  8.898388872515E-02  9.445260573801E-02  1.002574157919E-01
  1.064189742860E-01  1.116197688201E-01  1.170747310341E-01  1.227962823396E-01
  1.287974511941E-01  1.350919027679E-01  1.416939700613E-01  1.468564096257E-01
  1.522069361091E-01  1.577524022190E-01  1.634999103328E-01  1.694568215939E-01
  1.756307653396E-01  1.820296488724E-01  1.886616675873E-01  1.955353154683E-01
  2.026593959664E-01  2.100430332757E-01  2.151143122711E-01  2.203080322266E-01
  2.256271493567E-01  2.310746912507E-01  2.366537585963E-01  2.423675269438E-01
  2.482192485144E-01  2.542122540505E-01  2.603499547123E-01  2.666358440189E-01
  2.730734998369E-01  2.796665864169E-01  2.864188564794E-01  2.933341533502E-01
  3.004164131487E-01  3.076696670278E-01  3.150980434685E-01  3.227057706300E-01
  3.304971787561E-01  3.384767026400E-01  3.466488841485E-01  3.550183748074E-01
  3.635899384487E-01  3.723684539226E-01  3.813589178741E-01  3.905664475873E-01
  3.999962838978E-01  4.096537941763E-01  4.195444753829E-01  4.245790090875E-01
  4.296739571965E-01  4.348300446829E-01  4.400480052191E-01  4.453285812817E-01
  4.506725242571E-01  4.560805945481E-01  4.615535616827E-01  4.670922044229E-01
  4.726973108760E-01  4.783696786065E-01  4.841101147498E-01  4.899194361268E-01
  4.957984693603E-01  5.017480509926E-01  5.077690276045E-01  5.138622559358E-01
  5.200286030070E-01  5.262689462431E-01  5.325841735980E-01  5.389751836812E-01
  5.454428858854E-01  5.519882005160E-01  5.586120589222E-01  5.653154036293E-01
  5.720991884728E-01  5.789643787345E-01  5.859119512793E-01  5.929428946946E-01
  6.000582094310E-01  6.072589079442E-01  6.145460148395E-01  6.219205670176E-01
  6.293836138218E-01  6.369362171876E-01  6.445794517939E-01  6.523144052154E-01
  6.601421780780E-01  6.680638842149E-01  6.760806508255E-01  6.841936186354E-01
  6.924039420590E-01  7.007127893637E-01  7.091213428361E-01  7.176307989501E-01
  7.262423685375E-01  7.349572769600E-01  7.437767642835E-01  7.527020854549E-01
  7.617345104804E-01  7.708753246061E-01  7.801258285014E-01  7.894873384434E-01
  7.989611865048E-01  8.085487207428E-01  8.182513053917E-01  8.280703210564E-01
  8.380071649091E-01  8.480632508880E-01  8.582400098987E-01  8.685388900175E-01
  8.789613566977E-01  8.895088929780E-01  9.001829996938E-01  9.109851956901E-01
  9.219170180384E-01  9.329800222548E-01  9.441757825219E-01  9.555058919122E-01
  9.669719626151E-01  9.785756261665E-01  9.903185336805E-01  1.002202356085E+00
  1.014228784358E+00  1.026399529770E+00  1.038716324127E+00  1.051180920017E+00
  1.063795091057E+00  1.076560632150E+00  1.089479359735E+00  1.102553112052E+00
  1.115783749397E+00  1.129173154390E+00  1.142723232242E+00  1.156435911029E+00
  1.170313141962E+00  1.184356899665E+00  1.198569182461E+00  1.212952012651E+00
  1.227507436802E+00  1.242237526044E+00  1.257144376357E+00  1.272230108873E+00
  1.287496870179E+00  1.302946832621E+00  1.318582194613E+00  1.334405180948E+00
  1.350418043120E+00  1.366623059637E+00  1.383022536353E+00  1.399618806789E+00
  1.416414232470E+00  1.433411203260E+00  1.450612137699E+00  1.468019483352E+00
  1.485635717152E+00  1.503463345758E+00  1.521504905907E+00  1.539762964778E+00
  1.558240120355E+00  1.576939001799E+00  1.595862269821E+00  1.615012617059E+00
  1.634392768463E+00  1.654005481685E+00  1.673853547465E+00  1.693939790035E+00
  1.714267067515E+00  1.734838272325E+00  1.755656331593E+00  1.776724207572E+00
  1.798044898063E+00  1.819621436840E+00  1.841456894082E+00  1.863554376811E+00
  1.885917029333E+00  1.908548033685E+00  1.931450610089E+00  1.954628017410E+00
  1.978083553619E+00  2.001820556262E+00  2.025842402938E+00  2.050152511773E+00
  2.074754341914E+00  2.099651394017E+00  2.124847210745E+00  2.150345377274E+00
  2.176149521801E+00  2.202263316063E+00  2.228690475856E+00  2.255434761566E+00
  2.282499978705E+00  2.309889978449E+00  2.337608658191E+00  2.365659962089E+00
  2.394047881634E+00  2.422776456214E+00  2.451849773688E+00  2.481271970973E+00
  2.511047234624E+00  2.541179801440E+00  2.571673959057E+00  2.602534046566E+00
  2.633764455124E+00  2.665369628586E+00  2.697354064129E+00  2.729722312899E+00
  2.762478980653E+00  2.795628728421E+00  2.829176273162E+00  2.863126388440E+00
  2.897483905101E+00  2.932253711963E+00  2.967440756506E+00  3.003050045584E+00
  3.039086646131E+00  3.075555685885E+00  3.112462354115E+00  3.149811902365E+00
  3.187609645193E+00  3.225860960936E+00  3.264571292467E+00  3.303746147976E+00
  3.343391101752E+00  3.383511794973E+00  3.424113936513E+00  3.465203303751E+00
  3.506785743396E+00  3.548867172317E+00  3.591453578385E+00  3.634551021325E+00
  3.678165633581E+00  3.722303621184E+00  3.766971264638E+00  3.812174919814E+00
  3.857921018852E+00  3.904216071078E+00  3.951066663931E+00  3.998479463898E+00
  4.046461217465E+00  4.095018752074E+00  4.144158977099E+00  4.193888884824E+00
  4.244215551442E+00  4.295146138060E+00  4.346687891716E+00  4.398848146417E+00
  4.451634324174E+00  4.505053936064E+00  4.559114583297E+00  4.613823958296E+00
  4.669189845796E+00  4.725220123945E+00  4.781922765433E+00  4.839305838618E+00
  4.897377508681E+00  4.956146038786E+00  5.015619791251E+00  5.075807228746E+00
  5.136716915491E+00  5.198357518477E+00  5.260737808699E+00  5.323866662403E+00
  5.387753062352E+00  5.452406099100E+00  5.517834972289E+00  5.584048991957E+00
  5.651057579860E+00  5.718870270818E+00  5.787496714068E+00  5.856946674637E+00
  5.927230034733E+00  5.998356795150E+00  6.070337076691E+00  6.143181121612E+00
  6.216899295071E+00  6.291502086612E+00  6.367000111651E+00  6.443404112991E+00
  6.520724962347E+00  6.598973661895E+00  6.678161345838E+00  6.758299281988E+00
  6.839398873372E+00  6.921471659852E+00  7.004529319770E+00  7.088583671608E+00
  7.173646675667E+00  7.259730435775E+00  7.346847201004E+00  7.435009367416E+00
  7.524229479825E+00  7.614520233583E+00  7.705894476386E+00  7.798365210103E+00
  7.891945592624E+00  7.986648939736E+00  8.082488727012E+00  8.179478591737E+00
  8.277632334837E+00  8.376963922855E+00  8.477487489930E+00  8.579217339809E+00
  8.682167947887E+00  8.786353963261E+00  8.891790210820E+00  8.998491693350E+00
  9.106473593670E+00  9.215751276794E+00  9.326340292116E+00  9.438256375621E+00
  9.551515452129E+00  9.666133637554E+00  9.782127241205E+00  9.899512768099E+00
  1.001830692132E+01  1.013852660437E+01  1.026018892362E+01  1.038331119071E+01
  1.050791092500E+01  1.063400585610E+01  1.076161392637E+01  1.089075329349E+01
  1.102144233301E+01  1.115369964100E+01  1.128754403670E+01  1.142299456514E+01
  1.156007049992E+01  1.169879134592E+01  1.183917684207E+01  1.198124696417E+01
  1.212502192774E+01  1.227052219088E+01  1.241776845717E+01  1.256678167865E+01
  1.271758305880E+01  1.287019405550E+01  1.302463638417E+01  1.318093202078E+01
  1.333910320503E+01  1.349917244349E+01  1.366116251281E+01  1.382509646296E+01
  1.399099762052E+01  1.415888959197E+01  1.432879626707E+01  1.450074182227E+01
  1.467475072414E+01  1.485084773283E+01  1.502905790562E+01  1.520940660049E+01
  1.539191947970E+01  1.557662251345E+01  1.576354198362E+01  1.595270448742E+01
  1.614413694127E+01  1.633786658456E+01  1.653392098358E+01  1.673232803538E+01
  1.693311597181E+01  1.713631336347E+01  1.734194912383E+01  1.755005251332E+01
  1.776065314347E+01  1.797378098120E+01  1.818946635297E+01  1.840773994921E+01
  1.862863282860E+01  1.885217642254E+01  1.907840253961E+01  1.930734337009E+01
  1.953903149053E+01  1.977349986841E+01  2.001078186683E+01  2.025091124924E+01
  2.049392218423E+01  2.073984925044E+01  2.098872744144E+01  2.124059217074E+01
  2.149547927679E+01  2.175342502811E+01  2.201446612845E+01  2.227863972199E+01
  2.254598339865E+01  2.281653519944E+01  2.309033362183E+01  2.336741762529E+01
  2.364782663680E+01  2.393160055644E+01  2.421877976311E+01  2.450940512027E+01
  2.480351798172E+01  2.510116019750E+01  2.540237411987E+01  2.570720260930E+01
  2.601568904062E+01  2.632787730910E+01  2.664381183681E+01  2.696353757885E+01
  2.728710002980E+01  2.761454523016E+01  2.794591977292E+01  2.828127081020E+01
  2.862064605992E+01  2.896409381264E+01  2.931166293839E+01  2.966340289365E+01
  3.001936372837E+01  3.037959609311E+01  3.074415124623E+01  3.111308106119E+01
  3.148643803392E+01  3.186427529033E+01  3.224664659381E+01  3.263360635294E+01
  3.302520962917E+01  3.342151214472E+01  3.382257029046E+01  3.422844113394E+01
  3.463918242755E+01  3.505485261668E+01  3.547551084808E+01  3.590121697826E+01
  3.633203158200E+01  3.676801596098E+01  3.720923215251E+01  3.765574293834E+01
  3.810761185360E+01  3.856490319585E+01  3.902768203420E+01  3.949601421861E+01
  3.996996638923E+01  4.044960598590E+01  4.093500125773E+01  4.142622127283E+01
  4.192333592810E+01  4.242641595924E+01  4.293553295075E+01  4.345075934616E+01
  4.397216845831E+01
</grid-data>
</grid>
<valence-charge total-charge="23" is-unscreening-charge="yes"
 rescaled-to-z-pseudo="no">
<radfunc>
<data npts="457">
  7.354794025935E+00  7.360263551362E+00  7.376615995792E+00  7.403904890610E+00
  7.443963451223E+00  7.495104887216E+00  7.560329656374E+00  7.635080160765E+00
  7.719208243505E+00  7.817419841035E+00  7.928255299142E+00  8.048885341711E+00
  8.194892549187E+00  8.347634092792E+00  8.500472083796E+00  8.676828121918E+00
  8.880311152076E+00  9.073582494732E+00  9.291300492814E+00  9.536535301294E+00
  9.812731981075E+00  1.005856135784E+01  1.032885488674E+01  1.062600169775E+01
  1.095260852570E+01  1.131151428401E+01  1.170580382066E+01  1.202674258356E+01
  1.237096845109E+01  1.274007653957E+01  1.313574886235E+01  1.355975372799E+01
  1.401394361257E+01  1.450025110966E+01  1.502068248620E+01  1.557730828730E+01
  1.617225033768E+01  1.680766438195E+01  1.725482870186E+01  1.772158323155E+01
  1.820855925104E+01  1.871637486347E+01  1.924562892004E+01  1.979689407493E+01
  2.037070888688E+01  2.096756888114E+01  2.158791648420E+01  2.223212974365E+01
  2.290050974734E+01  2.359326666066E+01  2.431050430802E+01  2.505220323548E+01
  2.581820220717E+01  2.660817810830E+01  2.742162425410E+01  2.825782713722E+01
  2.911584168713E+01  2.999446516447E+01  3.089220987246E+01  3.180727493689E+01
  3.273751748591E+01  3.368042365271E+01  3.463307992616E+01  3.559214548808E+01
  3.655382629833E+01  3.751385182001E+01  3.846745541268E+01  3.894022000185E+01
  3.940935955883E+01  3.987413314734E+01  4.033376722240E+01  4.078745579678E+01
  4.123436076160E+01  4.167361237384E+01  4.210430992353E+01  4.252552259373E+01
  4.293629052607E+01  4.333562610478E+01  4.372251547155E+01  4.409592028339E+01
  4.445477972484E+01  4.479801278537E+01  4.512452081154E+01  4.543319034252E+01
  4.572289623628E+01  4.599250509182E+01  4.624087897130E+01  4.646687942364E+01
  4.666937180890E+01  4.684722992003E+01  4.699934089598E+01  4.712461041659E+01
  4.722196816683E+01  4.729037355409E+01  4.732882165825E+01  4.733634939079E+01
  4.731204183435E+01  4.725503873042E+01  4.716454107821E+01  4.703981780321E+01
  4.688021244985E+01  4.668514984809E+01  4.645414269963E+01  4.618679802571E+01
  4.588282341441E+01  4.554203300251E+01  4.516435312398E+01  4.474982755507E+01
  4.429862228434E+01  4.381102973540E+01  4.328747237020E+01  4.272850560151E+01
  4.213481994581E+01  4.150724235056E+01  4.084673663438E+01  4.015440298415E+01
  3.943147645999E+01  3.867932446678E+01  3.789944316032E+01  3.709345276671E+01
  3.626309180467E+01  3.541021021347E+01  3.453676140193E+01  3.364479324865E+01
  3.273643809747E+01  3.181390180757E+01  3.087945193216E+01  2.993540511443E+01
  2.898411380359E+01  2.802795240693E+01  2.706930300626E+01  2.611054077759E+01
  2.515401926197E+01  2.420205564241E+01  2.325691618663E+01  2.232080201747E+01
  2.139583537282E+01  2.048404651348E+01  1.958736143204E+01  1.870759050698E+01
  1.784641823521E+01  1.700539416274E+01  1.618592511711E+01  1.538926882769E+01
  1.461652900043E+01  1.386865189337E+01  1.314642441784E+01  1.245047376919E+01
  1.178126856926E+01  1.113912148287E+01  1.052419325082E+01  9.936498064358E+00
  9.375910189733E+00  8.842171737842E+00  8.334901461906E+00  7.853604456857E+00
  7.397682626848E+00  6.966445782340E+00  6.559123225227E+00  6.174875679277E+00
  5.812807423507E+00  5.471978487699E+00  5.151418029058E+00  4.850142186469E+00
  4.567173454740E+00  4.301547897762E+00  4.052322095962E+00  3.818578847832E+00
  3.599432115706E+00  3.394030986479E+00  3.201562646864E+00  3.021254350442E+00
  2.852374375945E+00  2.694231996819E+00  2.546175623328E+00  2.407586906911E+00
  2.277873436161E+00  2.156469120847E+00  2.042834193718E+00  1.936455173710E+00
  1.836844684252E+00  1.743541142559E+00  1.656108335087E+00  1.574134893526E+00
  1.497233684866E+00  1.425041128209E+00  1.357216450128E+00  1.293440889478E+00
  1.233416861730E+00  1.176867092090E+00  1.123533725854E+00  1.073177423742E+00
  1.025576449254E+00  9.805257544268E-01  9.378360697629E-01  8.973330035041E-01
  8.588561548715E-01  8.222582453403E-01  7.874042715046E-01  7.541706825850E-01
  7.224445851527E-01  6.921229771876E-01  6.631120131554E-01  6.353263013881E-01
  6.086882346764E-01  5.831273546428E-01  5.585797501549E-01  5.349874897624E-01
  5.122980878979E-01  4.904640043701E-01  4.694421764949E-01  4.491935830559E-01
  4.296828391583E-01  4.108778209334E-01  3.927493189689E-01  3.752707192746E-01
  3.584177105463E-01  3.421680164580E-01  3.265011516921E-01  3.113982004123E-01
  2.968416158824E-01  2.828150399486E-01  2.693031411190E-01  2.562914700002E-01
  2.437663308797E-01  2.317146682877E-01  2.201239673570E-01  2.089821669707E-01
  1.982775845616E-01  1.879988515969E-01  1.781348587821E-01  1.686747100720E-01
  1.596076846261E-01  1.509232058937E-01  1.426108170637E-01  1.346601621607E-01
  1.270609721174E-01  1.198030552009E-01  1.128762912121E-01  1.062706289271E-01
  9.997608628873E-02  9.398275289921E-02  8.828079440443E-02  8.286045840056E-02
  7.771208152858E-02  7.282609745902E-02  6.819304550228E-02  6.380357960806E-02
  5.964847757115E-02  5.571865023229E-02  5.200515056151E-02  4.849918248515E-02
  4.519210935922E-02  4.207546200925E-02  3.914094627544E-02  3.638045001785E-02
  3.378604955021E-02  3.135001548280E-02  2.906481796373E-02  2.692313131580E-02
  2.491783807078E-02  2.304203240691E-02  2.128902299708E-02  1.965233527635E-02
  1.812571313720E-02  1.670312006077E-02  1.537873969148E-02  1.414697586239E-02
  1.300245207855E-02  1.194001046592E-02  1.095471019523E-02  1.004182539169E-02
  9.196842544128E-03  8.415457430384E-03  7.693571579078E-03  7.027288291650E-03
  6.412908252218E-03  5.846924756311E-03  5.326018592718E-03  4.847052615416E-03
  4.407066044684E-03  4.003268538024E-03  3.633034072370E-03  3.293894679228E-03
  2.983534073949E-03  2.699781219242E-03  2.440603861473E-03  2.204102076207E-03
  1.988501857039E-03  1.792148779015E-03  1.613501764989E-03  1.451126980194E-03
  1.303691877124E-03  1.169959409669E-03  1.048782432334E-03  9.390982973424E-04
  8.399236595570E-04  7.503494964107E-04  6.695363475509E-04  5.967097765704E-04
  5.311560551274E-04  4.722180679132E-04  4.192914353174E-04  3.718208492751E-04
  3.292966166432E-04  2.912514035388E-04  2.572571733693E-04  2.269223107726E-04
  1.998889233490E-04  1.758303128875E-04  1.544486077409E-04  1.354725480709E-04
  1.186554158410E-04  1.037731016621E-04  9.062230087862E-05  7.901883159706E-05
  6.879606769727E-05  5.980348021264E-05  5.190528081063E-05  4.497916144130E-05
  3.891512454346E-05  3.361439850275E-05  2.898843334004E-05  2.495797187264E-05
  2.145219183468E-05  1.840791466786E-05  1.576887690136E-05  1.348506023201E-05
  1.151207659492E-05  9.810604683003E-06  8.345874532372E-06  7.087196942860E-06
  6.007534648266E-06  5.083112292743E-06  4.293062407562E-06  3.619104717781E-06
  3.045256241359E-06  2.557569774363E-06  2.143898485167E-06  1.793684467920E-06
  1.497769230901E-06  1.248224218440E-06  1.038199585517E-06  8.617895616811E-07
  7.139128551625E-07  5.902066586449E-07  4.869329248399E-07  4.008956824216E-07
  3.293682608373E-07  2.700293857849E-07  2.209071955994E-07  1.803303123213E-07
  1.468851797704E-07  1.193789545272E-07  9.680730436013E-08  7.832653241195E-08
  6.322950449477E-08  5.092491127033E-08  4.091944709467E-08  3.280253306539E-08
  2.623325353663E-08  2.092921327897E-08  1.665705678572E-08  1.322442219368E-08
  1.047313012794E-08  8.273432725410E-09  6.519170366645E-09  5.123703468843E-09
  4.016504275780E-09  3.140309124130E-09  2.448745361865E-09  1.904359122669E-09
  1.476980689800E-09  1.142373369885E-09  8.811197872722E-10  6.777064359458E-10
  5.197733110413E-10  3.975005967998E-10  3.031088131957E-10  2.304526103951E-10
  1.746916302321E-10  1.320245999862E-10  9.947515078244E-11  7.471981842269E-11
  5.595033911044E-11  4.176374090793E-11  3.107489285579E-11  2.304714145716E-11
  1.703746816313E-11  1.255326707516E-11  9.218391241671E-12  6.746567480454E-12
  4.920649675193E-12  3.576482642170E-12  2.590394526324E-12  1.869535042459E-12
  1.344437948335E-12  9.633158065066E-13  6.876991038913E-13  4.891149237593E-13
  3.465665526020E-13  2.446279088740E-13  1.720081736409E-13  1.204746692820E-13
  8.404765043559E-14  5.840068398011E-14  4.041586714017E-14  2.785520190528E-14
  1.911876043147E-14  1.306743859768E-14  8.893578848280E-15  6.026924842463E-15
  4.066545287852E-15  2.731764738344E-15  1.826946228339E-15  1.216325153863E-15
  8.061046827424E-16  5.317740295623E-16  3.491664730464E-16  2.281829487864E-16
  1.484069684068E-16  9.605517465097E-17  6.186673765384E-17  3.964952099472E-17
  2.528348562170E-17  1.604086913630E-17  1.012474630675E-17  6.357388324324E-18
  3.970858074028E-18  2.467024051270E-18  1.524466212100E-18  9.368914232856E-19
  5.726101078995E-19  3.480149160644E-19  2.103178474289E-19  1.263756903466E-19
  7.549688613008E-20  4.483741381749E-20  2.647063594255E-20  0.000000000000E+00
  0.000000000000E+00  0.000000000000E+00  0.000000000000E+00  0.000000000000E+00
  0.000000000000E+00  0.000000000000E+00  0.000000000000E+00  0.000000000000E+00
  0.000000000000E+00  0.000000000000E+00  0.000000000000E+00  0.000000000000E+00
  0.000000000000E+00  0.000000000000E+00  0.000000000000E+00  0.000000000000E+00
  0.000000000000E+00
</data>
</radfunc>
</valence-charge>
<pseudocore-charge matching-radius="0.520028603007"
 number-of-continuous-derivatives="4">
<annotation model-charge-form="Teter function with specified parameters" />
<radfunc>
<data npts="291">
  2.487114731921E+02  2.486789148310E+02  2.485815991373E+02  2.484192837980E+02
  2.481812055153E+02  2.478775888246E+02  2.474908967107E+02  2.470484631929E+02
  2.465514560139E+02  2.459724845332E+02  2.453206815415E+02  2.446131744149E+02
  2.437594435784E+02  2.428693663747E+02  2.419817903663E+02  2.409613955093E+02
  2.397889740290E+02  2.386802051571E+02  2.374367155994E+02  2.360429533380E+02
  2.344817902705E+02  2.330997538112E+02  2.315881439464E+02  2.299357781872E+02
  2.281307113724E+02  2.261602280467E+02  2.240108465270E+02  2.222728759862E+02
  2.204200186564E+02  2.184457955477E+02  2.163435342351E+02  2.141063924831E+02
  2.117273880841E+02  2.091994357590E+02  2.065153920349E+02  2.036681090658E+02
  2.006504984111E+02  1.974556058143E+02  1.952238503717E+02  1.929083835144E+02
  1.905073627341E+02  1.880190392946E+02  1.854417755275E+02  1.827740635001E+02
  1.800145450853E+02  1.771620334524E+02  1.742155359820E+02  1.711742785938E+02
  1.680377314534E+02  1.648056360035E+02  1.614780332364E+02  1.580552930943E+02
  1.545381448499E+02  1.509277082778E+02  1.472255253878E+02  1.434335924386E+02
  1.395543919003E+02  1.355909239758E+02  1.315467372317E+02  1.274259578227E+02
  1.232333167283E+02  1.189741743516E+02  1.146545417607E+02  1.102810977865E+02
  1.058612011270E+02  1.014028965500E+02  9.691491423918E+01  9.466270761924E+01
  9.240666129179E+01  9.014805406638E+01  8.788820435765E+01  8.562846908764E+01
  8.337024241096E+01  8.111495425590E+01  7.886406867450E+01  7.661908199551E+01
  7.438152077429E+01  7.215293953463E+01  6.993491829793E+01  6.772905989620E+01
  6.553698706613E+01  6.336033932252E+01  6.120076961047E+01  5.905994073707E+01
  5.693952158450E+01  5.484118310813E+01  5.276659412462E+01  5.071741689683E+01
  4.869530252397E+01  4.670188614767E+01  4.473878198624E+01  4.280757821182E+01
  4.090983168702E+01  3.904706258020E+01  3.722074888052E+01  3.543232083643E+01
  3.368315534351E+01  3.197457031001E+01  3.030781903056E+01  2.868408460110E+01
  2.710447440980E+01  2.557001474123E+01  2.408164553255E+01  2.264021532251E+01
  2.124647643520E+01  1.990108044194E+01  1.860457394539E+01  1.735739473062E+01
  1.615986832778E+01  1.501220503095E+01  1.391449741673E+01  1.286671840475E+01
  1.186871990067E+01  1.092023205927E+01  1.002086320251E+01  9.170100423495E+00
  8.367310902778E+00  7.611743958479E+00  6.902533845860E+00  6.238703315670E+00
  5.619167933293E+00  5.042741153750E+00  4.508140138719E+00  4.013992293827E+00
  3.558842495256E+00  3.141160965621E+00  2.759351749809E+00  2.411761732150E+00
  2.096690127177E+00  1.812398367402E+00  1.557120303205E+00  1.329072622291E+00
  1.126465389350E+00  9.475126008438E-01  7.904426453505E-01  6.535085568281E-01
  5.349979467250E-01  4.332425011620E-01  3.466269316197E-01  2.735972717590E-01
  2.126684192663E-01  1.624308299661E-01  1.215562818609E-01  8.880263917818E-02
  6.301756078376E-02  4.314111328829E-02  2.820726657263E-02  1.734426798680E-02
  9.773910776103E-03  4.809731941224E-03  1.854194291714E-03  3.949264121672E-04
  1.121140341550E-07  3.131371723389E-04  1.046615233230E-03  1.975926240238E-03
  2.932409126169E-03  3.796355482288E-03  4.489952161956E-03  4.970318122442E-03
  5.222774197774E-03  5.254474003395E-03  5.088510019170E-03  4.758591446705E-03
  4.304370199318E-03  3.767469001405E-03  3.188241808118E-03  2.603272458078E-03
  2.043593553534E-03  1.533584958966E-03  1.090490935507E-03  7.244776337927E-04
  4.391391884719E-04  2.323515727873E-04  9.736906348083E-05  2.405878710305E-05
  1.742703810717E-07  1.257884231446E-05  4.834352543460E-05  9.566087201076E-05
  1.445350251054E-04  1.872279612293E-04  2.184611872747E-04  2.353899241009E-04
  2.373819188234E-04  2.256445765777E-04  2.027514349276E-04  1.721217776807E-04
  1.375054056443E-04  1.025186130151E-04  7.026795882739E-05  4.308645630903E-05
  2.239351563897E-05  8.676653580413E-06  1.580893864810E-06  8.205035097748E-08
  2.713580224036E-06  7.813937339528E-06  1.376245836835E-05  1.917646338988E-05
  2.304974012388E-05  2.482188290716E-05  2.437785304591E-05  2.198634785908E-05
  1.819295621393E-05  1.368874839387E-05  9.176394394457E-06  5.254083172181E-06
  2.332850438711E-06  5.962478207409E-07  3.720728203364E-09  0.000000000000E+00
  0.000000000000E+00  0.000000000000E+00  0.000000000000E+00  0.000000000000E+00
  0.000000000000E+00  0.000000000000E+00  0.000000000000E+00  0.000000000000E+00
  0.000000000000E+00  0.000000000000E+00  0.000000000000E+00  0.000000000000E+00
  0.000000000000E+00  0.000000000000E+00  0.000000000000E+00  0.000000000000E+00
  0.000000000000E+00  0.000000000000E+00  0.000000000000E+00  0.000000000000E+00
  0.000000000000E+00  0.000000000000E+00  0.000000000000E+00  0.000000000000E+00
  0.000000000000E+00  0.000000000000E+00  0.000000000000E+00  0.000000000000E+00
  0.000000000000E+00  0.000000000000E+00  0.000000000000E+00  0.000000000000E+00
  0.000000000000E+00  0.000000000000E+00  0.000000000000E+00  0.000000000000E+00
  0.000000000000E+00  0.000000000000E+00  0.000000000000E+00  0.000000000000E+00
  0.000000000000E+00  0.000000000000E+00  0.000000000000E+00  0.000000000000E+00
  0.000000000000E+00  0.000000000000E+00  0.000000000000E+00  0.000000000000E+00
  0.000000000000E+00  0.000000000000E+00  0.000000000000E+00  0.000000000000E+00
  0.000000000000E+00  0.000000000000E+00  0.000000000000E+00  0.000000000000E+00
  0.000000000000E+00  0.000000000000E+00  0.000000000000E+00  0.000000000000E+00
  0.000000000000E+00  0.000000000000E+00  0.000000000000E+00  0.000000000000E+00
  0.000000000000E+00  0.000000000000E+00  0.000000000000E+00  0.000000000000E+00
  0.000000000000E+00  0.000000000000E+00  0.000000000000E+00  0.000000000000E+00
  0.000000000000E+00  0.000000000000E+00  0.000000000000E+00  0.000000000000E+00
  0.000000000000E+00  0.000000000000E+00  0.000000000000E+00
</data>
</radfunc>
</pseudocore-charge>
<semilocal-potentials set="scalar_relativistic">
<slps n="4" l="s" rc="1.30294683262" eref="-5.46164490161">
<radfunc>
<data npts="291">
 -2.268222959665E+01 -2.268391339424E+01 -2.268894528645E+01 -2.269733512954E+01
 -2.270963431892E+01 -2.272530763630E+01 -2.274525065691E+01 -2.276804260770E+01
 -2.279361305823E+01 -2.282335668242E+01 -2.285678556646E+01 -2.289300390132E+01
 -2.293661432767E+01 -2.298197292314E+01 -2.302709397695E+01 -2.307883146933E+01
 -2.313809855850E+01 -2.319397253645E+01 -2.325643306723E+01 -2.332618803722E+01
 -2.340400338735E+01 -2.347261084054E+01 -2.354735087736E+01 -2.362869305818E+01
 -2.371712681200E+01 -2.381315868476E+01 -2.391730859167E+01 -2.400106617630E+01
 -2.408991135539E+01 -2.418406708073E+01 -2.428375309094E+01 -2.438918345075E+01
 -2.450056372031E+01 -2.461808772429E+01 -2.474193389129E+01 -2.487226113574E+01
 -2.500920425677E+01 -2.515286883240E+01 -2.525241590189E+01 -2.535499366232E+01
 -2.546060425249E+01 -2.556923993225E+01 -2.568088211827E+01 -2.579550037418E+01
 -2.591305135644E+01 -2.603347771773E+01 -2.615670697036E+01 -2.628265031266E+01
 -2.641120142191E+01 -2.654223521800E+01 -2.667560660287E+01 -2.681114918117E+01
 -2.694867396875E+01 -2.708796809607E+01 -2.722879351473E+01 -2.737088571597E+01
 -2.751395247131E+01 -2.765767260615E+01 -2.780169481851E+01 -2.794563655613E+01
 -2.808908296648E+01 -2.823158593530E+01 -2.837266323109E+01 -2.851179777402E+01
 -2.864843704945E+01 -2.878199268778E+01 -2.891184023400E+01 -2.897516845449E+01
 -2.903731913161E+01 -2.909820409173E+01 -2.915773294747E+01 -2.921581311979E+01
 -2.927234986510E+01 -2.932724630730E+01 -2.938040347537E+01 -2.943172034634E+01
 -2.948109389424E+01 -2.952841914500E+01 -2.957358923769E+01 -2.961649549221E+01
 -2.965702748379E+01 -2.969507312442E+01 -2.973051875133E+01 -2.976324922296E+01
 -2.979314802237E+01 -2.982009736829E+01 -2.984397833408E+01 -2.986467097456E+01
 -2.988205446085E+01 -2.989600722337E+01 -2.990640710287E+01 -2.991313150961E+01
 -2.991605759058E+01 -2.991506240471E+01 -2.991002310586E+01 -2.990081713345E+01
 -2.988732241049E+01 -2.986941754867E+01 -2.984698206013E+01 -2.981989657549E+01
 -2.978804306770E+01 -2.975130508096E+01 -2.970956796431E+01 -2.966271910897E+01
 -2.961064818881E+01 -2.955324740305E+01 -2.949041172034E+01 -2.942203912335E+01
 -2.934803085293E+01 -2.926829165089E+01 -2.918273000061E+01 -2.909125836453E+01
 -2.899379341791E+01 -2.889025627823E+01 -2.878057272976E+01 -2.866467344334E+01
 -2.854249419134E+01 -2.841397605855E+01 -2.827906564996E+01 -2.813771529709E+01
 -2.798988326536E+01 -2.783553396542E+01 -2.767463817275E+01 -2.750717326080E+01
 -2.733312345407E+01 -2.715248010922E+01 -2.696524203390E+01 -2.677141585486E+01
 -2.657101644902E+01 -2.636406745366E+01 -2.615060187463E+01 -2.593066281399E+01
 -2.570430434247E+01 -2.547159254493E+01 -2.523260677129E+01 -2.498744112916E+01
 -2.473620625887E+01 -2.447903143561E+01 -2.421606704803E+01 -2.394748750659E+01
 -2.367349463869E+01 -2.339432163073E+01 -2.311023757905E+01 -2.282155271204E+01
 -2.252862434381E+01 -2.223186361477E+01 -2.193174306579E+01 -2.162880507881E+01