<?xml version="1.0" encoding="UTF-8" ?>
<psml version="1.1" energy_unit="hartree" length_unit="bohr"
 uuid="670d9750-1d60-11e8-766c-2e24b44f2c54"
 xmlns="http://esl.cecam.org/PSML/ns/1.1">
<provenance creator="ONCVPSP-3.3.0+psml-3.3.0-73 (scalar-relativistic)"
 date="2018-03-01">
<annotation action="semilocal-pseudopotential-generation"
 action-cont="projectors-generation" />
<input-file name="oncvpsp-input">
<![CDATA[# atsym z nc nv iexc psfile
Sb 51 8 3 -116133 upf
# n l f
1 0 2.0
2 0 2.0
2 1 6.0
3 0 2.0
3 1 6.0
3 2 10.0
4 0 2.0
4 1 6.0
4 2 10.0
5 0 2.0
5 1 3.0
# lmax
2
# l rc ep ncon nbas qcut
0 1.8 0.0 4 7 3.2
1 2.1 0.0 4 7 4.6
2 1.8 0.0 4 7 9.2
# lloc lpopt rc5 dvloc0
4 5 1.6 0.0
# l nproj debl
0 2 4.5
1 2 3.0
2 2 1.6
# icmod fcfact
3 5 1.41
# epsh1 epsh2 depsh
-12.0 12.0 0.02
# rlmax drl
6.0 0.01
 0
]]>
</input-file>
</provenance>
<pseudo-atom-spec atomic-label="Sb" atomic-number="51" z-pseudo="15"
 flavor="Hamann&apos;s oncvpsp" relativity="scalar" spin-dft="no"
 core-corrections="yes">
<annotation pseudo-energy="-80.1712998774" />
<exchange-correlation>
<annotation oncvpsp-xc-code="-116133" oncvpsp-xc-type="libxc-interface" />
<libxc-info number-of-functionals="2">
<functional name="Perdew, Burke &amp; Ernzerhof SOL (GGA)" type="exchange"
 id="116" />
<functional name="Perdew, Burke &amp; Ernzerhof SOL (GGA)" type="correlation"
 id="133" />
</libxc-info>
</exchange-correlation>
<valence-configuration total-valence-charge="15">
<shell n="4" l="d" occupation="10" />
<shell n="5" l="s" occupation="2" />
<shell n="5" l="p" occupation="3" />
</valence-configuration>
</pseudo-atom-spec>
<grid npts="457">
<annotation type="sampled from oncvpsp log grid"
 recipe="r(i:1..N) = r1*exp(a*(i-1)) + r=0; resampled"
 recipe-cont="r1: scale; a: step" scale="0.980392156863E-05"
 step="0.119285708653E-01" delta="0.500000000000E-02" rmax="43.9721684583" />
<grid-data>
  0.000000000000E+00  5.021204018428E-03  1.002946097687E-02  1.504579076758E-02
  2.027345795207E-02  2.543065629312E-02  3.077838077958E-02  3.594118822007E-02
  4.098057695047E-02  4.617247910357E-02  5.140528910190E-02  5.655251270478E-02
  6.221512900910E-02  6.763314664665E-02  7.265117934131E-02  7.804152433212E-02
  8.383180528246E-02  8.898388872515E-02  9.445260573801E-02  1.002574157919E-01
  1.064189742860E-01  1.116197688201E-01  1.170747310341E-01  1.227962823396E-01
  1.287974511941E-01  1.350919027679E-01  1.416939700613E-01  1.468564096257E-01
  1.522069361091E-01  1.577524022190E-01  1.634999103328E-01  1.694568215939E-01
  1.756307653396E-01  1.820296488724E-01  1.886616675873E-01  1.955353154683E-01
  2.026593959664E-01  2.100430332757E-01  2.151143122711E-01  2.203080322266E-01
  2.256271493567E-01  2.310746912507E-01  2.366537585963E-01  2.423675269438E-01
  2.482192485144E-01  2.542122540505E-01  2.603499547123E-01  2.666358440189E-01
  2.730734998369E-01  2.796665864169E-01  2.864188564794E-01  2.933341533502E-01
  3.004164131487E-01  3.076696670278E-01  3.150980434685E-01  3.227057706300E-01
  3.304971787561E-01  3.384767026400E-01  3.466488841485E-01  3.550183748074E-01
  3.635899384487E-01  3.723684539226E-01  3.813589178741E-01  3.905664475873E-01
  3.999962838978E-01  4.096537941763E-01  4.195444753829E-01  4.245790090875E-01
  4.296739571965E-01  4.348300446829E-01  4.400480052191E-01  4.453285812817E-01
  4.506725242571E-01  4.560805945481E-01  4.615535616827E-01  4.670922044229E-01
  4.726973108760E-01  4.783696786065E-01  4.841101147498E-01  4.899194361268E-01
  4.957984693603E-01  5.017480509926E-01  5.077690276045E-01  5.138622559358E-01
  5.200286030070E-01  5.262689462431E-01  5.325841735980E-01  5.389751836812E-01
  5.454428858854E-01  5.519882005160E-01  5.586120589222E-01  5.653154036293E-01
  5.720991884728E-01  5.789643787345E-01  5.859119512793E-01  5.929428946946E-01
  6.000582094310E-01  6.072589079442E-01  6.145460148395E-01  6.219205670176E-01
  6.293836138218E-01  6.369362171876E-01  6.445794517939E-01  6.523144052154E-01
  6.601421780780E-01  6.680638842149E-01  6.760806508255E-01  6.841936186354E-01
  6.924039420590E-01  7.007127893637E-01  7.091213428361E-01  7.176307989501E-01
  7.262423685375E-01  7.349572769600E-01  7.437767642835E-01  7.527020854549E-01
  7.617345104804E-01  7.708753246061E-01  7.801258285014E-01  7.894873384434E-01
  7.989611865048E-01  8.085487207428E-01  8.182513053917E-01  8.280703210564E-01
  8.380071649091E-01  8.480632508880E-01  8.582400098987E-01  8.685388900175E-01
  8.789613566977E-01  8.895088929780E-01  9.001829996938E-01  9.109851956901E-01
  9.219170180384E-01  9.329800222548E-01  9.441757825219E-01  9.555058919122E-01
  9.669719626151E-01  9.785756261665E-01  9.903185336805E-01  1.002202356085E+00
  1.014228784358E+00  1.026399529770E+00  1.038716324127E+00  1.051180920017E+00
  1.063795091057E+00  1.076560632150E+00  1.089479359735E+00  1.102553112052E+00
  1.115783749397E+00  1.129173154390E+00  1.142723232242E+00  1.156435911029E+00
  1.170313141962E+00  1.184356899665E+00  1.198569182461E+00  1.212952012651E+00
  1.227507436802E+00  1.242237526044E+00  1.257144376357E+00  1.272230108873E+00
  1.287496870179E+00  1.302946832621E+00  1.318582194613E+00  1.334405180948E+00
  1.350418043120E+00  1.366623059637E+00  1.383022536353E+00  1.399618806789E+00
  1.416414232470E+00  1.433411203260E+00  1.450612137699E+00  1.468019483352E+00
  1.485635717152E+00  1.503463345758E+00  1.521504905907E+00  1.539762964778E+00
  1.558240120355E+00  1.576939001799E+00  1.595862269821E+00  1.615012617059E+00
  1.634392768463E+00  1.654005481685E+00  1.673853547465E+00  1.693939790035E+00
  1.714267067515E+00  1.734838272325E+00  1.755656331593E+00  1.776724207572E+00
  1.798044898063E+00  1.819621436840E+00  1.841456894082E+00  1.863554376811E+00
  1.885917029333E+00  1.908548033685E+00  1.931450610089E+00  1.954628017410E+00
  1.978083553619E+00  2.001820556262E+00  2.025842402938E+00  2.050152511773E+00
  2.074754341914E+00  2.099651394017E+00  2.124847210745E+00  2.150345377274E+00
  2.176149521801E+00  2.202263316063E+00  2.228690475856E+00  2.255434761566E+00
  2.282499978705E+00  2.309889978449E+00  2.337608658191E+00  2.365659962089E+00
  2.394047881634E+00  2.422776456214E+00  2.451849773688E+00  2.481271970973E+00
  2.511047234624E+00  2.541179801440E+00  2.571673959057E+00  2.602534046566E+00
  2.633764455124E+00  2.665369628586E+00  2.697354064129E+00  2.729722312899E+00
  2.762478980653E+00  2.795628728421E+00  2.829176273162E+00  2.863126388440E+00
  2.897483905101E+00  2.932253711963E+00  2.967440756506E+00  3.003050045584E+00
  3.039086646131E+00  3.075555685885E+00  3.112462354115E+00  3.149811902365E+00
  3.187609645193E+00  3.225860960936E+00  3.264571292467E+00  3.303746147976E+00
  3.343391101752E+00  3.383511794973E+00  3.424113936513E+00  3.465203303751E+00
  3.506785743396E+00  3.548867172317E+00  3.591453578385E+00  3.634551021325E+00
  3.678165633581E+00  3.722303621184E+00  3.766971264638E+00  3.812174919814E+00
  3.857921018852E+00  3.904216071078E+00  3.951066663931E+00  3.998479463898E+00
  4.046461217465E+00  4.095018752074E+00  4.144158977099E+00  4.193888884824E+00
  4.244215551442E+00  4.295146138060E+00  4.346687891716E+00  4.398848146417E+00
  4.451634324174E+00  4.505053936064E+00  4.559114583297E+00  4.613823958296E+00
  4.669189845796E+00  4.725220123945E+00  4.781922765433E+00  4.839305838618E+00
  4.897377508681E+00  4.956146038786E+00  5.015619791251E+00  5.075807228746E+00
  5.136716915491E+00  5.198357518477E+00  5.260737808699E+00  5.323866662403E+00
  5.387753062352E+00  5.452406099100E+00  5.517834972289E+00  5.584048991957E+00
  5.651057579860E+00  5.718870270818E+00  5.787496714068E+00  5.856946674637E+00
  5.927230034733E+00  5.998356795150E+00  6.070337076691E+00  6.143181121612E+00
  6.216899295071E+00  6.291502086612E+00  6.367000111651E+00  6.443404112991E+00
  6.520724962347E+00  6.598973661895E+00  6.678161345838E+00  6.758299281988E+00
  6.839398873372E+00  6.921471659852E+00  7.004529319770E+00  7.088583671608E+00
  7.173646675667E+00  7.259730435775E+00  7.346847201004E+00  7.435009367416E+00
  7.524229479825E+00  7.614520233583E+00  7.705894476386E+00  7.798365210103E+00
  7.891945592624E+00  7.986648939736E+00  8.082488727012E+00  8.179478591737E+00
  8.277632334837E+00  8.376963922855E+00  8.477487489930E+00  8.579217339809E+00
  8.682167947887E+00  8.786353963261E+00  8.891790210820E+00  8.998491693350E+00
  9.106473593670E+00  9.215751276794E+00  9.326340292116E+00  9.438256375621E+00
  9.551515452129E+00  9.666133637554E+00  9.782127241205E+00  9.899512768099E+00
  1.001830692132E+01  1.013852660437E+01  1.026018892362E+01  1.038331119071E+01
  1.050791092500E+01  1.063400585610E+01  1.076161392637E+01  1.089075329349E+01
  1.102144233301E+01  1.115369964100E+01  1.128754403670E+01  1.142299456514E+01
  1.156007049992E+01  1.169879134592E+01  1.183917684207E+01  1.198124696417E+01
  1.212502192774E+01  1.227052219088E+01  1.241776845717E+01  1.256678167865E+01
  1.271758305880E+01  1.287019405550E+01  1.302463638417E+01  1.318093202078E+01
  1.333910320503E+01  1.349917244349E+01  1.366116251281E+01  1.382509646296E+01
  1.399099762052E+01  1.415888959197E+01  1.432879626707E+01  1.450074182227E+01
  1.467475072414E+01  1.485084773283E+01  1.502905790562E+01  1.520940660049E+01
  1.539191947970E+01  1.557662251345E+01  1.576354198362E+01  1.595270448742E+01
  1.614413694127E+01  1.633786658456E+01  1.653392098358E+01  1.673232803538E+01
  1.693311597181E+01  1.713631336347E+01  1.734194912383E+01  1.755005251332E+01
  1.776065314347E+01  1.797378098120E+01  1.818946635297E+01  1.840773994921E+01
  1.862863282860E+01  1.885217642254E+01  1.907840253961E+01  1.930734337009E+01
  1.953903149053E+01  1.977349986841E+01  2.001078186683E+01  2.025091124924E+01
  2.049392218423E+01  2.073984925044E+01  2.098872744144E+01  2.124059217074E+01
  2.149547927679E+01  2.175342502811E+01  2.201446612845E+01  2.227863972199E+01
  2.254598339865E+01  2.281653519944E+01  2.309033362183E+01  2.336741762529E+01
  2.364782663680E+01  2.393160055644E+01  2.421877976311E+01  2.450940512027E+01
  2.480351798172E+01  2.510116019750E+01  2.540237411987E+01  2.570720260930E+01
  2.601568904062E+01  2.632787730910E+01  2.664381183681E+01  2.696353757885E+01
  2.728710002980E+01  2.761454523016E+01  2.794591977292E+01  2.828127081020E+01
  2.862064605992E+01  2.896409381264E+01  2.931166293839E+01  2.966340289365E+01
  3.001936372837E+01  3.037959609311E+01  3.074415124623E+01  3.111308106119E+01
  3.148643803392E+01  3.186427529033E+01  3.224664659381E+01  3.263360635294E+01
  3.302520962917E+01  3.342151214472E+01  3.382257029046E+01  3.422844113394E+01
  3.463918242755E+01  3.505485261668E+01  3.547551084808E+01  3.590121697826E+01
  3.633203158200E+01  3.676801596098E+01  3.720923215251E+01  3.765574293834E+01
  3.810761185360E+01  3.856490319585E+01  3.902768203420E+01  3.949601421861E+01
  3.996996638923E+01  4.044960598590E+01  4.093500125773E+01  4.142622127283E+01
  4.192333592810E+01  4.242641595924E+01  4.293553295075E+01  4.345075934616E+01
  4.397216845831E+01
</grid-data>
</grid>
<valence-charge total-charge="15" is-unscreening-charge="yes"
 rescaled-to-z-pseudo="no">
<radfunc>
<data npts="457">
  4.354960340281E-03  4.358883219710E-03  4.374389159309E-03  4.412861302815E-03
  4.497824151407E-03  4.655431955250E-03  4.936166518274E-03  5.367406688802E-03
  5.992041176833E-03  6.906968130839E-03  8.178483450316E-03  9.848611078250E-03
  1.226644972305E-02  1.525687373068E-02  1.871729635789E-02  2.328714934177E-02
  2.932097458486E-02  3.579966670535E-02  4.396133500945E-02  5.423834406889E-02
  6.717137867110E-02  7.987838402939E-02  9.513422244360E-02  1.134390593678E-01
  1.353871937145E-01  1.616834210292E-01  1.931617884155E-01  2.207573406196E-01
  2.522967918748E-01  2.883202974277E-01  3.294362981099E-01  3.763287905911E-01
  4.297650361208E-01  4.906036413091E-01  5.598029108558E-01  6.384293302207E-01
  7.276659846863E-01  8.288206587097E-01  9.035836676467E-01  9.847413206274E-01
  1.072782320312E+00  1.168223946570E+00  1.271612345958E+00  1.383522558737E+00
  1.504558231013E+00  1.635350953470E+00  1.776559161763E+00  1.928866527119E+00
  2.092979759024E+00  2.269625735385E+00  2.459547869273E+00  2.663501615650E+00
  2.882249016542E+00  3.116552179401E+00  3.367165581200E+00  3.634827090744E+00
  3.920247604200E+00  4.224099194671E+00  4.547001686433E+00  4.889507579044E+00
  5.252085266684E+00  5.635100524836E+00  6.038796270498E+00  6.463270644598E+00
  6.908453516924E+00  7.374081575450E+00  7.859672234040E+00  8.109736149883E+00
  8.364496675367E+00  8.623819735902E+00  8.887552439566E+00  9.155522232950E+00
  9.427536072987E+00  9.703379620829E+00  9.982816464350E+00  1.026558737631E+01
  1.055140961578E+01  1.083997628074E+01  1.113095572064E+01  1.142399101748E+01
  1.171869954532E+01  1.201467261756E+01  1.231147523257E+01  1.260864592791E+01
  1.290569675400E+01  1.320211337827E+01  1.349735533067E+01  1.379085640183E+01
  1.408202520473E+01  1.437024591086E+01  1.465487917115E+01  1.493526323203E+01
  1.521071525572E+01  1.548053285374E+01  1.574399584118E+01  1.600036821845E+01
  1.624890038576E+01  1.648883159419E+01  1.671939263534E+01  1.693980876973E+01
  1.714930289207E+01  1.734709892877E+01  1.753242546107E+01  1.770451956396E+01
  1.786263084834E+01  1.800602569071E+01  1.813399163138E+01  1.824584191901E+01
  1.834092017556E+01  1.841860515245E+01  1.847831554523E+01  1.851951483036E+01
  1.854171608473E+01  1.854448674502E+01  1.852745326129E+01  1.849030559636E+01
  1.843280152040E+01  1.835477064818E+01  1.825611816527E+01  1.813682818859E+01
  1.799696670690E+01  1.783668404734E+01  1.765621681575E+01  1.745588926098E+01
  1.723611401655E+01  1.699739217755E+01  1.674031267565E+01  1.646555092153E+01
  1.617386669122E+01  1.586610124088E+01  1.554317364353E+01  1.520607635119E+01
  1.485586999594E+01  1.449367745483E+01  1.412067721433E+01  1.373809608207E+01
  1.334720130438E+01  1.294929215996E+01  1.254569111020E+01  1.213773459669E+01
  1.172676358541E+01  1.131411396448E+01  1.090110690859E+01  1.048903932740E+01
  1.007917451763E+01  9.672733138739E+00  9.270884630195E+00  8.874739183910E+00
  8.485340378925E+00  8.103658576434E+00  7.730585162234E+00  7.366927710616E+00
  7.013406128962E+00  6.670649826037E+00  6.339195929718E+00  6.019488561863E+00
  5.711879159834E+00  5.416627816161E+00  5.133905590504E+00  4.863797731858E+00
  4.606307734300E+00  4.361362136837E+00  4.128815967432E+00  3.908458723261E+00
  3.700020773930E+00  3.503180071686E+00  3.317569052755E+00  3.142781616505E+00
  2.978380074197E+00  2.823901966162E+00  2.678866655188E+00  2.542781614217E+00
  2.415148337805E+00  2.295467818841E+00  2.183245544235E+00  2.077995975480E+00
  1.979246491777E+00  1.886540784523E+00  1.799441702244E+00  1.717533554369E+00
  1.640423890429E+00  1.567744778340E+00  1.499153611334E+00  1.434333477869E+00
  1.372993132740E+00  1.314866610313E+00  1.259712522551E+00  1.207313085279E+00
  1.157472916096E+00  1.110017646445E+00  1.064791731578E+00  1.021653678760E+00
  9.804703387459E-01  9.411166237940E-01  9.034755719288E-01  8.674380906020E-01
  8.329028050685E-01  7.997758645831E-01  7.679707305668E-01  7.374079469390E-01
  7.080148945551E-01  6.797255316545E-01  6.524801221404E-01  6.262248478042E-01
  6.009109709448E-01  5.764937475717E-01  5.529319984505E-01  5.301879725251E-01
  5.082270080634E-01  4.870172845109E-01  4.665295738138E-01  4.467370054357E-01
  4.276148441678E-01  4.091402808787E-01  3.912922362629E-01  3.740511775428E-01
  3.573989479940E-01  3.413186090846E-01  3.257942949546E-01  3.108110789009E-01
  2.963548514834E-01  2.824122098258E-01  2.689703576483E-01  2.560170155410E-01
  2.435403409635E-01  2.315288574488E-01  2.199713924248E-01  2.088570231912E-01
  1.981750304142E-01  1.879148586309E-01  1.780660832127E-01  1.686183832509E-01
  1.595615198438E-01  1.508853192762E-01  1.425796606005E-01  1.346344671482E-01
  1.270397015208E-01  1.197853636314E-01  1.128614913914E-01  1.062581636621E-01
  9.996550511305E-02  9.397369265876E-02  8.827296316495E-02  8.285362214632E-02
  7.770605319952E-02  7.282072794146E-02  6.818821624699E-02  6.379919660010E-02
  5.964446641925E-02  5.571495218254E-02  5.200171927222E-02  4.849598142627E-02
  4.518910972284E-02  4.207264103697E-02  3.913828592468E-02  3.637793590274E-02
  3.378367010437E-02  3.134776130053E-02  2.906268128445E-02  2.692110562278E-02
  2.491591778095E-02  2.304021263273E-02  2.128729936535E-02  1.965070379169E-02
  1.812417008042E-02  1.670166191429E-02  1.537736308566E-02  1.414567753789E-02
  1.300122886068E-02  1.193885924819E-02  1.095362792955E-02  1.004080908344E-02
  9.195889250702E-03  8.414564262095E-03  7.692735701584E-03  7.026506929310E-03
  6.412178691896E-03  5.846244351299E-03  5.325384766534E-03  4.846462865313E-03
  4.406517944758E-03  4.002759741856E-03  3.632562315169E-03  3.293457779464E-03
  2.983129934481E-03  2.699407827965E-03  2.440259291513E-03  2.203784485691E-03
  1.988209488485E-03  1.791879958377E-03  1.613254900393E-03  1.450900560412E-03
  1.303484469809E-03  1.169769659396E-03  1.048609058478E-03  9.389400918220E-04
  8.397794844617E-04  7.502182815539E-04  6.694170879576E-04  5.966015299243E-04
  5.310579391944E-04  4.721292579566E-04  4.192111615185E-04  3.717483941714E-04
  3.292313125944E-04  2.911926302292E-04  2.572043553550E-04  2.268749150793E-04
  1.998464571272E-04  1.757923211287E-04  1.544146710599E-04  1.354422805574E-04
  1.186284629828E-04  1.037491383432E-04  9.060102945348E-05  7.899998004222E-05
  6.877938784205E-05  5.978874604899E-05  5.189228688252E-05  4.496772131351E-05
  3.890506934942E-05  3.360557557055E-05  2.898070489556E-05  2.495121381849E-05
  2.144629260335E-05  1.840277414711E-05  1.576440542995E-05  1.348117766335E-05
  1.150871142637E-05  9.807693248028E-06  8.343360253172E-06  7.085029640411E-06
  6.005669907121E-06  5.081510877652E-06  4.291689729030E-06  3.617930343689E-06
  3.044253451790E-06  2.556715156822E-06  2.143171567455E-06  1.793067385972E-06
  1.497246429030E-06  1.247782179472E-06  1.037826588460E-06  8.614754646488E-07
  7.136489014044E-07  5.899853036549E-07  4.867476826343E-07  4.007409892000E-07
  3.292393543621E-07  2.699221989308E-07  2.208182626438E-07  1.802566866551E-07
  1.468243618186E-07  1.193288287709E-07  9.676608444763E-08  7.829271344207E-08
  6.320182163897E-08  5.090230398299E-08  4.090102823562E-08  3.278756232864E-08
  2.622111464353E-08  2.091939445306E-08  1.664913408049E-08  1.321804529358E-08
  1.046801028750E-08  8.269332551691E-09  6.515895186173E-09  5.121094053038E-09
  4.014430727527E-09  3.138665754201E-09  2.447446406630E-09  1.903335174875E-09
  1.476175731939E-09  1.141742315352E-09  8.806264481520E-10  6.773218482040E-10
  5.194743582400E-10  3.972688824110E-10  3.029297393205E-10  2.303146273362E-10
  1.745856270620E-10  1.319434111134E-10  9.941315765392E-11  7.467262901020E-11
  5.591453079138E-11  4.173665485024E-11  3.105447011169E-11  2.303179272414E-11
  1.702597063203E-11  1.254468299949E-11  9.212003866937E-12  6.741830801248E-12
  4.917149169080E-12  3.573904687125E-12  2.588502663782E-12  1.868151618065E-12
  1.343429962271E-12  9.625840471715E-13  6.871698332357E-13  4.887335383484E-13
  3.462927688186E-13  2.444321194750E-13  1.718687011336E-13  1.203757032975E-13
  8.397770476030E-14  5.835144684470E-14  4.038134793089E-14  2.783110041218E-14
  1.910200248721E-14  1.305583561647E-14  8.885579242341E-15  6.021433284283E-15
  4.062791859471E-15  2.729210605325E-15  1.825215939015E-15  1.215158262281E-15
  8.053213337533E-16  5.312505867761E-16  3.488183376629E-16  2.279525035722E-16
  1.482551574667E-16  9.595565032049E-17  6.180181131078E-17  3.960737537360E-17
  2.525626501137E-17  1.602337748261E-17  1.011356416737E-17  6.350276958308E-18
  3.966359363901E-18  2.464193296537E-18  1.522694603504E-18  9.357887260079E-19
  5.719275506285E-19  3.475947828541E-19  2.100607069804E-19  1.262192102897E-19
  7.540221408260E-20  4.478047260927E-20  2.643659198866E-20  0.000000000000E+00
  0.000000000000E+00  0.000000000000E+00  0.000000000000E+00  0.000000000000E+00
  0.000000000000E+00  0.000000000000E+00  0.000000000000E+00  0.000000000000E+00
  0.000000000000E+00  0.000000000000E+00  0.000000000000E+00  0.000000000000E+00
  0.000000000000E+00  0.000000000000E+00  0.000000000000E+00  0.000000000000E+00
  0.000000000000E+00
</data>
</radfunc>
</valence-charge>
<pseudocore-charge matching-radius="0.838007164909"
 number-of-continuous-derivatives="4">
<annotation model-charge-form="Teter function with specified parameters" />
<radfunc>
<data npts="291">
  8.789589737174E+01  8.789088257156E+01  8.787589145775E+01  8.785088049432E+01
  8.781417969061E+01  8.776734885803E+01  8.770766029682E+01  8.763930719454E+01
  8.756244562895E+01  8.747280506951E+01  8.737175468383E+01  8.726190764495E+01
  8.712913422692E+01  8.699044621282E+01  8.685188014277E+01  8.669224634323E+01
  8.650838718427E+01  8.633407225208E+01  8.613806710086E+01  8.591772892567E+01
  8.567010800694E+01  8.545017026014E+01  8.520882086557E+01  8.494404246594E+01
  8.465364172279E+01  8.433523696913E+01  8.398624567046E+01  8.370275621011E+01
  8.339923140434E+01  8.307433466188E+01  8.272665243010E+01  8.235469169960E+01
  8.195687777117E+01  8.153155236301E+01  8.107697214777E+01  8.059130782316E+01
  8.007264383468E+01  7.951897888569E+01  7.912939742132E+01  7.872269645705E+01
  7.829822202723E+01  7.785530507784E+01  7.739326220967E+01  7.691139657605E+01
  7.640899895012E+01  7.588534897783E+01  7.533971663353E+01  7.477136389629E+01
  7.417954666547E+01  7.356351693520E+01  7.292252524821E+01  7.225582344967E+01
  7.156266776271E+01  7.084232220713E+01  7.009406238331E+01  6.931717964279E+01
  6.851098566686E+01  6.767481747344E+01  6.680804287141E+01  6.591006637960E+01
  6.498033562552E+01  6.401834823585E+01  6.302365922673E+01  6.199588889769E+01
  6.093473122722E+01  5.983996276150E+01  5.871145198013E+01  5.813452966628E+01
  5.754916911361E+01  5.695538417865E+01  5.635319637724E+01  5.574263522367E+01
  5.512373857405E+01  5.449655297353E+01  5.386113400637E+01  5.321754664838E+01
  5.256586562077E+01  5.190617574457E+01  5.123857229462E+01  5.056316135212E+01
  4.988006015457E+01  4.918939744196E+01  4.849131379776E+01  4.778596198352E+01
  4.707350726541E+01  4.635412773126E+01  4.562801459632E+01  4.489537249612E+01
  4.415641976435E+01  4.341138869405E+01  4.266052577988E+01  4.190409193940E+01
  4.114236271110E+01  4.037562842689E+01  3.960419435660E+01  3.882838082201E+01
  3.804852327788E+01  3.726497235734E+01  3.647809387893E+01  3.568826881256E+01
  3.489589320168E+01  3.410137803874E+01  3.330514909130E+01  3.250764667579E+01
  3.170932537634E+01  3.091065370574E+01  3.011211370598E+01  2.931420048581E+01
  2.851742169261E+01  2.772229691648E+01  2.692935702418E+01  2.613914342100E+01
  2.535220723873E+01  2.456910844828E+01  2.379041489564E+01  2.301670126035E+01
  2.224854793593E+01  2.148653983214E+01  2.073126509939E+01  1.998331377607E+01
  1.924327636026E+01  1.851174230755E+01  1.778929845761E+01  1.707652739256E+01
  1.637400573105E+01  1.568230236255E+01  1.500197662711E+01  1.433357644674E+01
  1.367763641515E+01  1.303467585368E+01  1.240519684170E+01  1.178968223101E+01
  1.118859365430E+01  1.060236953858E+01  1.003142313549E+01  9.476140580800E+00
  8.936878996494E+00  8.413964649246E+00  7.907691179727E+00  7.418317917758E+00
  6.946068298629E+00  6.491128396252E+00  6.053645588950E+00  5.633727373675E+00
  5.231440344349E+00  4.846809349642E+00  4.479816845021E+00  4.130402453197E+00
  3.798462746126E+00  3.483851260640E+00  3.186378758333E+00  2.905813738776E+00
  2.641883213252E+00  2.394273744154E+00  2.162632752851E+00  1.946570096341E+00
  1.745659910288E+00  1.559442713124E+00  1.387427762881E+00  1.229095655225E+00
  1.083901147945E+00  9.512761938348E-01  8.306331606480E-01  7.213682135910E-01
  6.228648327250E-01  5.344974347468E-01  4.556350659644E-01  3.856451309468E-01
  3.238971193779E-01  2.697662921491E-01  2.226372867454E-01  1.819076015796E-01
  1.469909191629E-01  1.173202289036E-01  9.235071194863E-02  7.156235283049E-02
  5.446224577348E-02  4.058656732830E-02  2.950219152080E-02  2.080792886479E-02
  1.413537633308E-02  9.149371613865E-03  5.548051588736E-03  3.062521824152E-03
  1.456150819650E-03  5.235096404659E-04  8.898420350803E-05  5.093701558884E-06
  1.505542571094E-04  4.281317145439E-04  7.623313386849E-04  1.096974937975E-03
  1.392717445760E-03  1.624555179017E-03  1.779376794601E-03  1.853605366479E-03
  1.850976049818E-03  1.780488566185E-03  1.654567377488E-03  1.487455103745E-03
  1.293856716932E-03  1.087843585266E-03  8.820178553253E-04  6.869292684302E-04
  5.107286428632E-04  3.590352352096E-04  2.349893160343E-04  1.394568084617E-04
  7.134993558954E-05  2.802662464362E-05  5.731960102862E-06  4.721287120018E-08
  6.315754686209E-06  2.002026534203E-05  3.709174584547E-05  5.413759156620E-05
  6.858294229266E-05  7.872628097405E-05  8.371638185339E-05  8.346283509352E-05
  7.849619201906E-05  6.979607048836E-05  5.860623499387E-05  4.625474667992E-05
  3.399491605028E-05  2.287925330663E-05  1.367426135348E-05  6.819183429858E-06
  2.427157635019E-06  3.230859925284E-07  1.092798146948E-07  1.247882339793E-06
  3.148352041328E-06  5.248927099112E-06  7.082845118079E-06  8.322888601394E-06
  8.801187377568E-06  8.504695347299E-06  7.549925425359E-06  6.142978764818E-06
  4.532350405958E-06  2.962284562498E-06  1.633604743302E-06  6.771361971030E-07
  1.423881549487E-07  0.000000000000E+00  0.000000000000E+00  0.000000000000E+00
  0.000000000000E+00  0.000000000000E+00  0.000000000000E+00  0.000000000000E+00
  0.000000000000E+00  0.000000000000E+00  0.000000000000E+00  0.000000000000E+00
  0.000000000000E+00  0.000000000000E+00  0.000000000000E+00  0.000000000000E+00
  0.000000000000E+00  0.000000000000E+00  0.000000000000E+00  0.000000000000E+00
  0.000000000000E+00  0.000000000000E+00  0.000000000000E+00  0.000000000000E+00
  0.000000000000E+00  0.000000000000E+00  0.000000000000E+00  0.000000000000E+00
  0.000000000000E+00  0.000000000000E+00  0.000000000000E+00  0.000000000000E+00
  0.000000000000E+00  0.000000000000E+00  0.000000000000E+00  0.000000000000E+00
  0.000000000000E+00  0.000000000000E+00  0.000000000000E+00  0.000000000000E+00
  0.000000000000E+00  0.000000000000E+00  0.000000000000E+00  0.000000000000E+00
  0.000000000000E+00  0.000000000000E+00  0.000000000000E+00
</data>
</radfunc>
</pseudocore-charge>
<semilocal-potentials set="scalar_relativistic">
<slps n="5" l="s" rc="1.81962143684" eref="-0.473196550520">
<radfunc>
<data npts="291">
  2.735916304332E+01  2.734205574989E+01  2.729098507624E+01  2.720601062690E+01
  2.708184068698E+01  2.692429054195E+01  2.672492129174E+01  2.649856712645E+01
  2.624649813874E+01  2.595576161271E+01  2.563213194172E+01  2.528517979813E+01
  2.487241255252E+01  2.444878497255E+01  2.403301529821E+01  2.356305757512E+01
  2.303340506262E+01  2.254238104392E+01  2.200277606864E+01  2.141145463769E+01
  2.076546600352E+01  2.020751393438E+01  1.961168462078E+01  1.897700914342E+01
  1.830277485365E+01  1.758857274102E+01  1.683434524176E+01  1.624259663032E+01
  1.562882128348E+01  1.499347371873E+01  1.433716632657E+01  1.366067634226E+01
  1.296495113577E+01  1.225111155913E+01  1.152045311607E+01  1.077444475675E+01
  1.001472514866E+01  9.243096333408E+00  8.723021016177E+00  8.199134799494E+00
  7.672079641621E+00  7.142521954059E+00  6.611150403602E+00  6.078673537970E+00
  5.545817253778E+00  5.013322127712E+00  4.481940633469E+00  3.952434268367E+00
  3.425570614346E+00  2.902120358431E+00  2.382854297549E+00  1.868540351855E+00
  1.359940609466E+00  8.578084237240E-01  3.628855818003E-01 -1.241004393019E-01
 -6.024391164681E-01 -1.071439414606E+00 -1.530432205747E+00 -1.978772571781E+00
 -2.415841993781E+00 -2.841050435245E+00 -3.253838330978E+00 -3.653678497637E+00
 -4.040077986096E+00 -4.412579899624E+00 -4.770765205294E+00 -4.944368986342E+00
 -5.114254568920E+00 -5.280381049314E+00 -5.442710245990E+00 -5.601206764124E+00
 -5.755838062335E+00 -5.906574521863E+00 -6.053389518454E+00 -6.196259497163E+00
 -6.335164050306E+00 -6.470085998735E+00 -6.601011476625E+00 -6.727930019880E+00
 -6.850834658281E+00 -6.969722011422E+00 -7.084592388441E+00 -7.195449891516E+00
 -7.302302523008E+00 -7.405162296095E+00 -7.504045348634E+00 -7.598972059933E+00
 -7.689967170015E+00 -7.777059900824E+00 -7.860284078774E+00 -7.939678257854E+00
 -8.015285842403E+00 -8.087155208533E+00 -8.155339822998E+00 -8.219898358147E+00
 -8.280894801443E+00 -8.338398557816E+00 -8.392484542924E+00 -8.443233265226E+00
 -8.490730894501E+00 -8.535069314310E+00 -8.576346155619E+00 -8.614664808649E+00
 -8.650134409807E+00 -8.682869800373E+00 -8.712991453496E+00 -8.740625365909E+00
 -8.765902910736E+00 -8.788960647705E+00 -8.809940087166E+00 -8.828987404412E+00
 -8.846253100968E+00 -8.861891609855E+00 -8.876060842159E+00 -8.888921672738E+00
 -8.900637363497E+00 -8.911372923309E+00 -8.921294404477E+00 -8.930568136509E+00
 -8.939359898926E+00 -8.947834035868E+00 -8.956152516380E+00 -8.964473945335E+00
 -8.972952531145E+00 -8.981737017508E+00 -8.990969587535E+00 -9.000784749639E+00
 -9.011308215490E+00 -9.022655781142E+00 -9.034932223134E+00 -9.048230221825E+00
 -9.062629324556E+00 -9.078194961334E+00 -9.094977525568E+00 -9.113011532124E+00
 -9.132314864322E+00 -9.152888120786E+00 -9.174714072055E+00 -9.197757235768E+00
 -9.221963577984E+00 -9.247260346904E+00 -9.273556043993E+00 -9.300740536304E+00
 -9.328685312831E+00 -9.357243887002E+00 -9.386252347166E+00 -9.415530057051E+00
 -9.444880508900E+00 -9.474092333157E+00 -9.502940470118E+00 -9.531187510613E+00
 -9.558585214107E+00 -9.584876212968E+00 -9.609795910332E+00 -9.633074574998E+00