<?xml version="1.0" encoding="UTF-8" ?>
<psml version="1.1" energy_unit="hartree" length_unit="bohr"
 uuid="e70cd380-1d65-11e8-6ee9-4442779b4433"
 xmlns="http://esl.cecam.org/PSML/ns/1.1">
<provenance creator="ONCVPSP-3.3.0+psml-3.3.0-73 (scalar-relativistic)"
 date="2018-03-01">
<annotation action="semilocal-pseudopotential-generation"
 action-cont="projectors-generation" />
<input-file name="oncvpsp-input">
<![CDATA[# atsym z nc nv iexc psfile
In 49 6 5 -116133 upf
# n l f
1 0 2.0
2 0 2.0
2 1 6.0
3 0 2.0
3 1 6.0
3 2 10.0
4 0 2.0
4 1 6.0
4 2 10.0
5 0 2.0
5 1 1.0
# lmax
2
# l rc ep ncon nbas qcut
0 1.6 0.0 5 8 9.0
1 1.6 0.0 5 8 8.8
2 1.7 0.0 4 7 9.0
# lloc lpopt rc5 dvloc0
4 5 1.5 0.0
# l nproj debl
0 2 1.0
1 2 1.0
2 2 1.5
# icmod fcfact rcfact
3 5.0 1.44
# epsh1 epsh2 depsh
-12.0 12.0 0.02
# rlmax drl
6.0 0.01
 0
]]>
</input-file>
</provenance>
<pseudo-atom-spec atomic-label="In" atomic-number="49" z-pseudo="21"
 flavor="Hamann&apos;s oncvpsp" relativity="scalar" spin-dft="no"
 core-corrections="yes">
<annotation pseudo-energy="-190.303212761" />
<exchange-correlation>
<annotation oncvpsp-xc-code="-116133" oncvpsp-xc-type="libxc-interface" />
<libxc-info number-of-functionals="2">
<functional name="Perdew, Burke &amp; Ernzerhof SOL (GGA)" type="exchange"
 id="116" />
<functional name="Perdew, Burke &amp; Ernzerhof SOL (GGA)" type="correlation"
 id="133" />
</libxc-info>
</exchange-correlation>
<valence-configuration total-valence-charge="21">
<shell n="4" l="s" occupation="2" />
<shell n="4" l="p" occupation="6" />
<shell n="4" l="d" occupation="10" />
<shell n="5" l="s" occupation="2" />
<shell n="5" l="p" occupation="1" />
</valence-configuration>
</pseudo-atom-spec>
<grid npts="457">
<annotation type="sampled from oncvpsp log grid"
 recipe="r(i:1..N) = r1*exp(a*(i-1)) + r=0; resampled"
 recipe-cont="r1: scale; a: step" scale="0.102040816327E-04"
 step="0.119285708653E-01" delta="0.500000000000E-02" rmax="44.1581064066" />
<grid-data>
  0.000000000000E+00  5.042436366198E-03  1.007187092528E-02  1.510941245291E-02
  2.011777176121E-02  2.523536637175E-02  3.054202401815E-02  3.566518465412E-02
  4.066587435065E-02  4.581790627188E-02  5.101053189425E-02  5.611822836574E-02
  6.173735967777E-02  6.711377067229E-02  7.295838755272E-02  7.837152581763E-02
  8.418629118611E-02  8.936016040508E-02  9.485200209104E-02  1.006813580000E-01
  1.068689708730E-01  1.120917571602E-01  1.175697858846E-01  1.233155309823E-01
  1.293420760023E-01  1.356631438985E-01  1.422931282787E-01  1.474773974107E-01
  1.528505487941E-01  1.584194641135E-01  1.641912757790E-01  1.701733760607E-01
  1.763734265569E-01  1.827993680065E-01  1.894594304590E-01  1.963621438154E-01
  2.035163487527E-01  2.109312080467E-01  2.160239311338E-01  2.212396129270E-01
  2.265812221416E-01  2.320517991689E-01  2.376544578081E-01  2.433923870374E-01
  2.492688528300E-01  2.552872000128E-01  2.614508541699E-01  2.677633235929E-01
  2.742282012778E-01  2.808491669694E-01  2.876299892567E-01  2.945745277173E-01
  3.016867351146E-01  3.089706596472E-01  3.164304472537E-01  3.240703439722E-01
  3.318946983570E-01  3.399079639542E-01  3.481147018359E-01  3.565195831970E-01
  3.651273920137E-01  3.739430277665E-01  3.829715082289E-01  3.922179723236E-01
  4.016876830473E-01  4.113860304668E-01  4.213185347864E-01  4.263743572039E-01
  4.314908494903E-01  4.366687396842E-01  4.419087645604E-01  4.472116697351E-01
  4.525782097720E-01  4.580091482892E-01  4.635052580687E-01  4.690673211655E-01
  4.746961290195E-01  4.803924825677E-01  4.861571923585E-01  4.919910786669E-01
  4.978949716109E-01  5.038697112702E-01  5.099161478054E-01  5.160351415791E-01
  5.222275632780E-01  5.284942940374E-01  5.348362255658E-01  5.412542602726E-01
  5.477493113959E-01  5.543223031326E-01  5.609741707702E-01  5.677058608195E-01
  5.745183311493E-01  5.814125511231E-01  5.883895017366E-01  5.954501757574E-01
  6.025955778665E-01  6.098267248009E-01  6.171446454985E-01  6.245503812445E-01
  6.320449858194E-01  6.396295256493E-01  6.473050799571E-01  6.550727409165E-01
  6.629336138075E-01  6.708888171732E-01  6.789394829793E-01  6.870867567751E-01
  6.953317978564E-01  7.036757794306E-01  7.121198887838E-01  7.206653274492E-01
  7.293133113786E-01  7.380650711151E-01  7.469218519685E-01  7.558849141921E-01
  7.649555331624E-01  7.741349995604E-01  7.834246195551E-01  7.928257149898E-01
  8.023396235697E-01  8.119676990525E-01  8.217113114411E-01  8.315718471784E-01
  8.415507093446E-01  8.516493178567E-01  8.618691096710E-01  8.722115389870E-01
  8.826780774549E-01  8.932702143843E-01  9.039894569569E-01  9.148373304404E-01
  9.258153784057E-01  9.369251629466E-01  9.481682649019E-01  9.595462840808E-01
  9.710608394897E-01  9.827135695636E-01  9.945061323984E-01  1.006440205987E+00
  1.018517488459E+00  1.030739698321E+00  1.043108574700E+00  1.055625877597E+00
  1.068293388128E+00  1.081112908785E+00  1.094086263691E+00  1.107215298855E+00
  1.120501882441E+00  1.133947905031E+00  1.147555279891E+00  1.161325943250E+00
  1.175261854569E+00  1.189364996824E+00  1.203637376785E+00  1.218081025307E+00
  1.232697997611E+00  1.247490373582E+00  1.262460258065E+00  1.277609781162E+00
  1.292941098536E+00  1.308456391718E+00  1.324157868419E+00  1.340047762840E+00
  1.356128335994E+00  1.372401876026E+00  1.388870698538E+00  1.405537146920E+00
  1.422403592684E+00  1.439472435796E+00  1.456746105025E+00  1.474227058286E+00
  1.491917782985E+00  1.509820796381E+00  1.527938645937E+00  1.546273909689E+00
  1.564829196605E+00  1.583607146964E+00  1.602610432728E+00  1.621841757920E+00
  1.641303859016E+00  1.660999505324E+00  1.680931499388E+00  1.701102677380E+00
  1.721515909509E+00  1.742174100423E+00  1.763080189628E+00  1.784237151904E+00
  1.805647997726E+00  1.827315773699E+00  1.849243562983E+00  1.871434485739E+00
  1.893891699568E+00  1.916618399963E+00  1.939617820762E+00  1.962893234612E+00
  1.986447953427E+00  2.010285328868E+00  2.034408752815E+00  2.058821657848E+00
  2.083527517742E+00  2.108529847955E+00  2.133832206131E+00  2.159438192604E+00
  2.185351450916E+00  2.211575668327E+00  2.238114576347E+00  2.264971951263E+00
  2.292151614678E+00  2.319657434054E+00  2.347493323263E+00  2.375663243142E+00
  2.404171202060E+00  2.433021256484E+00  2.462217511562E+00  2.491764121701E+00
  2.521665291161E+00  2.551925274655E+00  2.582548377951E+00  2.613538958486E+00
  2.644901425988E+00  2.676640243100E+00  2.708759926017E+00  2.741265045130E+00
  2.774160225671E+00  2.807450148379E+00  2.841139550160E+00  2.875233224762E+00
  2.909736023459E+00  2.944652855740E+00  2.979988690009E+00  3.015748554289E+00
  3.051937536941E+00  3.088560787384E+00  3.125623516833E+00  3.163130999035E+00
  3.201088571023E+00  3.239501633875E+00  3.278375653482E+00  3.317716161324E+00
  3.357528755259E+00  3.397819100323E+00  3.438592929526E+00  3.479856044681E+00
  3.521614317217E+00  3.563873689024E+00  3.606640173292E+00  3.649919855371E+00
  3.693718893636E+00  3.738043520359E+00  3.782900042604E+00  3.828294843115E+00
  3.874234381232E+00  3.920725193807E+00  3.967773896133E+00  4.015387182886E+00
  4.063571829081E+00  4.112334691030E+00  4.161682707322E+00  4.211622899810E+00
  4.262162374608E+00  4.313308323103E+00  4.365068022981E+00  4.417448839256E+00
  4.470458225327E+00  4.524103724031E+00  4.578392968720E+00  4.633333684344E+00
  4.688933688556E+00  4.745200892819E+00  4.802143303533E+00  4.859769023175E+00
  4.918086251453E+00  4.977103286471E+00  5.036828525909E+00  5.097270468219E+00
  5.158437713838E+00  5.220338966404E+00  5.282983034001E+00  5.346378830409E+00
  5.410535376374E+00  5.475461800890E+00  5.541167342501E+00  5.607661350611E+00
  5.674953286818E+00  5.743052726260E+00  5.811969358975E+00  5.881712991283E+00
  5.952293547178E+00  6.023721069745E+00  6.096005722582E+00  6.169157791252E+00
  6.243187684748E+00  6.318105936964E+00  6.393923208208E+00  6.470650286707E+00
  6.548298090147E+00  6.626877667229E+00  6.706400199236E+00  6.786877001626E+00
  6.868319525646E+00  6.950739359954E+00  7.034148232273E+00  7.118558011060E+00
  7.203980707193E+00  7.290428475679E+00  7.377913617388E+00  7.466448580796E+00
  7.556045963766E+00  7.646718515331E+00  7.738479137515E+00  7.831340887165E+00
  7.925316977811E+00  8.020420781545E+00  8.116665830923E+00  8.214065820894E+00
  8.312634610745E+00  8.412386226074E+00  8.513334860787E+00  8.615494879116E+00
  8.718880817666E+00  8.823507387478E+00  8.929389476128E+00  9.036542149841E+00
  9.144980655639E+00  9.254720423507E+00  9.365777068589E+00  9.478166393412E+00
  9.591904390133E+00  9.707007242815E+00  9.823491329728E+00  9.941373225685E+00
  1.006066970439E+01  1.018139774085E+01  1.030357451374E+01  1.042721740790E+01
  1.055234401680E+01  1.067897214500E+01  1.080711981074E+01  1.093680524847E+01
  1.106804691145E+01  1.120086347439E+01  1.133527383608E+01  1.147129712211E+01
  1.160895268758E+01  1.174826011983E+01  1.188923924126E+01  1.203191011216E+01
  1.217629303351E+01  1.232240854991E+01  1.247027745251E+01  1.261992078194E+01
  1.277135983132E+01  1.292461614930E+01  1.307971154309E+01  1.323666808160E+01
  1.339550809858E+01  1.355625419577E+01  1.371892924612E+01  1.388355639707E+01
  1.405015907383E+01  1.421876098272E+01  1.438938611451E+01  1.456205874789E+01
  1.473680345286E+01  1.491364509430E+01  1.509260883543E+01  1.527372014145E+01
  1.545700478315E+01  1.564248884055E+01  1.583019870663E+01  1.602016109111E+01
  1.621240302421E+01  1.640695186050E+01  1.660383528282E+01  1.680308130622E+01
  1.700471828189E+01  1.720877490128E+01  1.741528020009E+01  1.762426356249E+01
  1.783575472524E+01  1.804978378194E+01  1.826638118733E+01  1.848557776158E+01
  1.870740469471E+01  1.893189355105E+01  1.915907627366E+01  1.938898518895E+01
  1.962165301122E+01  1.985711284735E+01  2.009539820152E+01  2.033654297994E+01
  2.058058149570E+01  2.082754847364E+01  2.107747905533E+01  2.133040880399E+01
  2.158637370964E+01  2.184541019416E+01  2.210755511649E+01  2.237284577788E+01
  2.264131992722E+01  2.291301576634E+01  2.318797195554E+01  2.346622761901E+01
  2.374782235043E+01  2.403279621864E+01  2.432118977326E+01  2.461304405054E+01
  2.490840057915E+01  2.520730138610E+01  2.550978900273E+01  2.581590647077E+01
  2.612569734841E+01  2.643920571660E+01  2.675647618519E+01  2.707755389942E+01
  2.740248454621E+01  2.773131436076E+01  2.806409013309E+01  2.840085921469E+01
  2.874166952527E+01  2.908656955957E+01  2.943560839428E+01  2.978883569502E+01
  3.014630172336E+01  3.050805734404E+01  3.087415403217E+01  3.124464388055E+01
  3.161957960712E+01  3.199901456240E+01  3.238300273715E+01  3.277159877000E+01
  3.316485795524E+01  3.356283625070E+01  3.396559028571E+01  3.437317736914E+01
  3.478565549757E+01  3.520308336354E+01  3.562552036390E+01  3.605302660827E+01
  3.648566292757E+01  3.692349088270E+01  3.736657277329E+01  3.781497164657E+01
  3.826875130633E+01  3.872797632200E+01  3.919271203787E+01  3.966302458232E+01
  4.013898087731E+01  4.062064864784E+01  4.110809643161E+01  4.160139358879E+01
  4.210061031186E+01  4.260581763560E+01  4.311708744723E+01  4.363449249659E+01
  4.415810640655E+01
</grid-data>
</grid>
<valence-charge total-charge="21" is-unscreening-charge="yes"
 rescaled-to-z-pseudo="no">
<radfunc>
<data npts="457">
  6.260035404325E+00  6.263827345525E+00  6.275163368315E+00  6.294077942953E+00
  6.320380245998E+00  6.354973045607E+00  6.399074346364E+00  6.449592240647E+00
  6.506417090348E+00  6.572714160462E+00  6.647480990794E+00  6.728793290232E+00
  6.827126655723E+00  6.929897802816E+00  7.051223955405E+00  7.172487532284E+00
  7.312239489010E+00  7.444818547887E+00  7.593985520264E+00  7.761780284868E+00
  7.950482307520E+00  8.118196819559E+00  8.302348634657E+00  8.504499287990E+00
  8.726346004398E+00  8.969730060445E+00  9.236644635371E+00  9.453560907212E+00
  9.685888597418E+00  9.934649012904E+00  1.020091680970E+01  1.048581977510E+01
  1.079053782170E+01  1.111630099854E+01  1.146438628836E+01  1.183611291934E+01
  1.223283587333E+01  1.265593722112E+01  1.295334952715E+01  1.326352206078E+01
  1.358686815408E+01  1.392379659287E+01  1.427470859490E+01  1.463999435446E+01
  1.502002911001E+01  1.541516868916E+01  1.582574448350E+01  1.625205780418E+01
  1.669437356827E+01  1.715291326599E+01  1.762784715956E+01  1.811928566697E+01
  1.862726988739E+01  1.915176123088E+01  1.969263012275E+01  2.024964376368E+01
  2.082245294014E+01  2.141057789718E+01  2.201339330680E+01  2.263011239096E+01
  2.325977028935E+01  2.390120679855E+01  2.455304865128E+01  2.521369155363E+01
  2.588128225251E+01  2.655370096746E+01  2.722854458816E+01  2.756604342922E+01
  2.790311111169E+01  2.823936092194E+01  2.857438587112E+01  2.890775840800E+01
  2.923903018662E+01  2.956773189498E+01  2.989337315153E+01  3.021544247632E+01
  3.053340734388E+01  3.084671432530E+01  3.115478932705E+01  3.145703793423E+01
  3.175284586604E+01  3.204157955145E+01  3.232258683287E+01  3.259519780560E+01
  3.285872580082E+01  3.311246851945E+01  3.335570932410E+01  3.358771869566E+01
  3.380775586091E+01  3.401507059652E+01  3.420890521428E+01  3.438849673147E+01
  3.455307922918E+01  3.470188640029E+01  3.483415428746E+01  3.494912421007E+01
  3.504604587728E+01  3.512418068277E+01  3.518280517480E+01  3.522121469285E+01
  3.523872716038E+01  3.523468702037E+01  3.520846929833E+01  3.515948377445E+01
  3.508717924427E+01  3.499104784430E+01  3.487062941636E+01  3.472551588170E+01
  3.455535559322E+01  3.435985763136E+01  3.413879600690E+01  3.389201373154E+01
  3.361942671470E+01  3.332102744355E+01  3.299688840144E+01  3.264716517880E+01
  3.227209922990E+01  3.187202022871E+01  3.144734797731E+01  3.099859382129E+01
  3.052636152833E+01  3.003134758834E+01  2.951434089673E+01  2.897622178611E+01
  2.841796037654E+01  2.784061421982E+01  2.724532521955E+01  2.663331581580E+01
  2.600588443097E+01  2.536440018175E+01  2.471029687133E+01  2.404506628536E+01
  2.337025082515E+01  2.268743552175E+01  2.199823948478E+01  2.130430685004E+01
  2.060729729964E+01  1.990887623813E+01  1.921070471635E+01  1.851442920274E+01
  1.782167130850E+01  1.713401757813E+01  1.645300946078E+01  1.578013357964E+01
  1.511681241712E+01  1.446439553125E+01  1.382415141506E+01  1.319726010458E+01
  1.258480663265E+01  1.198777541570E+01  1.140704564810E+01  1.084338776485E+01
  1.029746101753E+01  9.769812191825E+00  9.260875476718E+00  8.770973477451E+00
  8.300319345531E+00  7.849019980951E+00  7.417080244235E+00  7.004408099541E+00
  6.610820595298E+00  6.236050575957E+00  5.879754007867E+00  5.541517794187E+00
  5.220867948304E+00  4.917277992611E+00  4.630177449545E+00  4.358960294628E+00
  4.102993246499E+00  3.861623776551E+00  3.634187730398E+00  3.420016464714E+00
  3.218443415727E+00  3.028810029485E+00  2.850470998593E+00  2.682798765263E+00
  2.525187265913E+00  2.377054907898E+00  2.237846784153E+00  2.107036156009E+00
  1.984125293786E+00  1.868645809811E+00  1.760158519528E+00  1.658252788476E+00
  1.562544708215E+00  1.472672493551E+00  1.388290799436E+00  1.309070616469E+00
  1.234698966479E+00  1.164878609471E+00  1.099327697376E+00  1.037779382503E+00
  9.799813880153E-01  9.256955472637E-01  8.746973182345E-01  8.267752788846E-01
  7.817306086003E-01  7.393765605309E-01  6.995379290707E-01  6.620505163061E-01
  6.267606008104E-01  5.935244117614E-01  5.622076109718E-01  5.326847850632E-01
  5.048389496844E-01  4.785610673630E-01  4.537495803022E-01  4.303099591733E-01
  4.081542687220E-01  3.872007507952E-01  3.673734252043E-01  3.486017086714E-01
  3.308200519544E-01  3.139675951148E-01  2.979878407735E-01  2.828283451026E-01
  2.684404262133E-01  2.547788895254E-01  2.418017696463E-01  2.294700882353E-01
  2.177476272885E-01  2.066007172533E-01  1.959980393526E-01  1.859104414896E-01
  1.763107670927E-01  1.671736962571E-01  1.584755985426E-01  1.501943967943E-01
  1.423094413614E-01  1.348013941030E-01  1.276521215874E-01  1.208445969070E-01
  1.143628095517E-01  1.081916828044E-01  1.023169981449E-01  9.672532616829E-02
  9.140396355028E-02  8.634087561236E-02  8.152464406452E-02  7.694441951992E-02
  7.258987841334E-02  6.845118395721E-02  6.451895080529E-02  6.078421310884E-02
  5.723839567161E-02  5.387328792905E-02  5.068102049596E-02  4.765404404484E-02
  4.478511029420E-02  4.206725490245E-02  3.949378207870E-02  3.705825073632E-02
  3.475446202932E-02  3.257644812454E-02  3.051846207511E-02  2.857496867221E-02
  2.674063616296E-02  2.501032873233E-02  2.337909965621E-02  2.184218504169E-02
  2.039499807800E-02  1.903312372958E-02  1.775231380892E-02  1.654848237324E-02
  1.541770139477E-02  1.435619665940E-02  1.336034385455E-02  1.242666480783E-02
  1.155182384823E-02  1.073262426025E-02  9.966004807371E-03  9.249036304323E-03
  8.578918220819E-03  7.952975302525E-03  7.368654197852E-03  6.823520081936E-03
  6.315253271623E-03  5.841645827663E-03  5.400598142419E-03  4.990115513331E-03
  4.608304704085E-03  4.253370496928E-03  3.923612240821E-03  3.617420401192E-03
  3.333273117827E-03  3.069732778089E-03  2.825442613012E-03  2.599123324073E-03
  2.389569748455E-03  2.195647570498E-03  2.016290086804E-03  1.850495032062E-03
  1.697321472207E-03  1.555886770985E-03  1.425363635369E-03  1.304977244660E-03
  1.194002467393E-03  1.091761169538E-03  9.976196167610E-04  9.109859728794E-04
  8.313078959991E-04  7.580702331997E-04  6.907928140788E-04  6.290283429283E-04
  5.723603888281E-04  5.204014725073E-04  4.727912484217E-04  4.291947801548E-04
  3.893009069397E-04  3.528206988415E-04  3.194859979184E-04  2.890480424986E-04
  2.612761715621E-04  2.359566061056E-04  2.128913042846E-04  1.918968870729E-04
  1.728036311506E-04  1.554545257253E-04  1.397043900085E-04  1.254190481030E-04
  1.124745581096E-04  1.007564923313E-04  9.015926553455E-05  8.058550832308E-05
  7.194548278661E-05  6.415653770060E-05  5.714260067776E-05  5.083370480010E-05
  4.516554739306E-05  4.007907873880E-05  3.552011866127E-05  3.143899905107E-05
  2.779023053025E-05  2.453219158662E-05  2.162683863105E-05  1.903943554931E-05
  1.673830143219E-05  1.469457527177E-05  1.288199650905E-05  1.127670040721E-05
  9.857027306829E-06  8.603344893093E-06  7.497882672066E-06  6.524577913041E-06
  5.668932367376E-06  4.917879121922E-06  4.259658987350E-06  3.683705859173E-06
  3.180540522518E-06  2.741672401325E-06  2.359508779118E-06  2.027271042367E-06
  1.738917519088E-06  1.489072505203E-06  1.272961089610E-06  1.086349406134E-06
  9.254899569796E-07  7.870716679169E-07  6.681743506580E-07  5.662272626170E-07
  4.789714687240E-07  4.044257241838E-07  3.408556110908E-07  2.867456756390E-07
  2.407743263120E-07  2.017912668771E-07  1.687972512231E-07  1.409259600427E-07
  1.174278120353E-07  9.765553464914E-08  8.105133137619E-08  6.713549420448E-08
  5.549632100515E-08  4.578120835025E-08  3.768880050222E-08  3.096208506738E-08
  2.538233505176E-08  2.076380578665E-08  1.694910341711E-08  1.380514930054E-08
  1.121967191893E-08  9.098164508610E-09  7.361252850724E-09  5.942423358143E-09
  4.786066850860E-09  3.845798225405E-09  3.083016619772E-09  2.465674675495E-09
  1.967229126152E-09  1.565748220122E-09  1.243154438530E-09  9.845836203639E-10
  7.778439787951E-10  6.129606081518E-10  4.817929613811E-10  3.777144439091E-10
  2.953447412085E-10  2.303267926992E-10  1.791414612463E-10  1.389539417536E-10
  1.074868192342E-10  8.291544019306E-11  6.378191393153E-11  4.892462414063E-11
  3.742061647643E-11  2.853864428631E-11  2.170101090775E-11  1.645265072281E-11
  1.243614932415E-11  9.371621867968E-12  7.040553383523E-12  5.272860264862E-12
  3.936562588366E-12  2.929565952633E-12  2.173142423539E-12  1.606775661044E-12
  1.184097802162E-12  8.696972388906E-13  6.366188288852E-13  4.644128197061E-13
  3.376171386820E-13  2.445807875596E-13  1.765548022725E-13  1.269923651198E-13
  9.101183567874E-14  6.498623692472E-14  4.623054215570E-14  3.276432702405E-14
  2.313228474531E-14  1.626900216891E-14  1.139746488376E-14  7.953168233692E-15
  5.527592015354E-15  3.826262738532E-15  2.637760890624E-15  1.810908308867E-15
  1.238044359222E-15  8.428158575188E-16  5.712993213603E-16  3.855731025127E-16
  2.590830365040E-16  1.733154912444E-16  1.154193377122E-16  7.651364605012E-17
  5.048871957560E-17  3.316046670129E-17  2.167669371863E-17  1.410218730104E-17
  9.130096472918E-18  5.882115391666E-18  3.770804979076E-18  2.405188482773E-18
  1.526332093828E-18  0.000000000000E+00  0.000000000000E+00  0.000000000000E+00
  0.000000000000E+00
</data>
</radfunc>
</valence-charge>
<pseudocore-charge matching-radius="0.560974170770"
 number-of-continuous-derivatives="4">
<annotation model-charge-form="Teter function with specified parameters" />
<radfunc>
<data npts="290">
  1.836546783506E+02  1.836320703746E+02  1.835644950150E+02  1.834517810530E+02
  1.832951218150E+02  1.830892231353E+02  1.828269585927E+02  1.825268502716E+02
  1.821896748048E+02  1.817968280950E+02  1.813544785388E+02  1.808742230740E+02
  1.802945691851E+02  1.796900715608E+02  1.789781504539E+02  1.782684371262E+02
  1.774527773703E+02  1.766811957562E+02  1.758156245889E+02  1.748451495097E+02
  1.737577322772E+02  1.727947460558E+02  1.717411082283E+02  1.705889181438E+02
  1.693297192404E+02  1.679544889214E+02  1.664536357522E+02  1.652394685169E+02
  1.639444525598E+02  1.625639372390E+02  1.610931173081E+02  1.595270468832E+02
  1.578606574976E+02  1.560887808305E+02  1.542061767418E+02  1.522075672967E+02
  1.500876774971E+02  1.478412834737E+02  1.462708744205E+02  1.446404876024E+02
  1.429486904686E+02  1.411941046982E+02  1.393754177090E+02  1.374913951416E+02
  1.355408943486E+02  1.335228789139E+02  1.314364342182E+02  1.292807840563E+02
  1.270553083018E+02  1.247595615989E+02  1.223932930457E+02  1.199564668141E+02
  1.174492836289E+02  1.148722030058E+02  1.122259661160E+02  1.095116191188E+02
  1.067305367652E+02  1.038844460375E+02  1.009754495528E+02  9.800604840765E+01
  9.497916410028E+01  9.189815911408E+01  8.876685569693E+01  8.558955232009E+01
  8.237103725012E+01  7.911659861918E+01  7.583203033547E+01  7.418039683888E+01
  7.252363313726E+01  7.086260527446E+01  6.919821006517E+01  6.753137459580E+01
  6.586305560903E+01  6.419423876628E+01  6.252593778261E+01  6.085919342856E+01
  5.919507239391E+01  5.753466600847E+01  5.587908881529E+01  5.422947699246E+01
  5.258698661962E+01  5.095279178636E+01  4.932808254006E+01  4.771406267134E+01
  4.611194733640E+01  4.452296051600E+01  4.294833231220E+01  4.138929608455E+01
  3.984708542908E+01  3.832293100398E+01  3.681805720791E+01  3.533367871754E+01
  3.387099689278E+01  3.243119605961E+01  3.101543968181E+01  2.962486643474E+01
  2.826058619587E+01  2.692367596843E+01  2.561517575647E+01  2.433608441106E+01
  2.308735546940E+01  2.186989301000E+01  2.068454754899E+01  1.953211200396E+01
  1.841331775334E+01  1.732883082068E+01  1.627924821415E+01  1.526509445289E+01
  1.428681831245E+01  1.334478982198E+01  1.243929754644E+01  1.157054618659E+01
  1.073865452959E+01  9.943653781862E+00  9.185486315006E+00  8.464004853763E+00
  7.778972133112E+00  7.130061048985E+00  6.516855324145E+00  5.938850707267E+00
  5.395456719306E+00  4.885998956771E+00  4.409721956613E+00  3.965792622067E+00
  3.553304203034E+00  3.171280818444E+00  2.818682501620E+00  2.494410743004E+00
  2.197314497790E+00  1.926196619130E+00  1.679820670775E+00  1.456918066315E+00
  1.256195475859E+00  1.076342434973E+00  9.160390853559E-01  7.739639719753E-01
  6.488018175669E-01  5.392511924823E-01  4.440319961207E-01  3.618926656339E-01
  2.916170284053E-01  2.320307170435E-01  1.820070693690E-01  1.404724411493E-01
  1.064108661505E-01  7.886800640140E-02  5.695434532955E-02  3.984758751836E-02
  2.679424109781E-02  1.711037200945E-02  1.018153334495E-02  5.461887357007E-03
  2.472552265853E-03  7.992202829652E-04  8.910697628050E-05  4.730482411249E-05
  4.326251652079E-04  1.053022378009E-03  1.760701668029E-03  2.447017003701E-03
  3.037268269074E-03  3.485506417153E-03  3.769452214233E-03  3.885628061069E-03
  3.844793461365E-03  3.667763189407E-03  3.381673401985E-03  3.016745264133E-03
  2.603578626703E-03  2.170990498654E-03  1.744395149162E-03  1.344705338619E-03
  9.877181014734E-04  6.839343468955E-04  4.387499015360E-04  2.529469908521E-04
  1.234099111373E-04  4.398699654876E-05  6.422969818369E-06  1.291228745658E-06
  1.886421942157E-05  4.987125814377E-05  8.610630714999E-05  1.208624830452E-04
  1.491846040578E-04  1.679449651721E-04  1.757599102274E-04  1.727748895098E-04
  1.603529511893E-04  1.407056244731E-04  1.165057651330E-04  9.051926639805E-05
  6.528696624747E-05  4.288021668785E-05  2.474421938648E-05  1.163329241614E-05
  3.632669670577E-06  2.531500956167E-07  5.786690009370E-07  3.443198689265E-06
  7.612561167954E-06  1.194870149793E-05  1.553836717973E-05  1.777433656802E-05
  1.838450779736E-05  1.741136854056E-05  1.515070023811E-05  1.206304498430E-05
  8.673933126987E-06  5.478902353676E-06  2.867050226976E-06  1.072701016298E-06
  1.594523255611E-07  0.000000000000E+00  0.000000000000E+00  0.000000000000E+00
  0.000000000000E+00  0.000000000000E+00  0.000000000000E+00  0.000000000000E+00
  0.000000000000E+00  0.000000000000E+00  0.000000000000E+00  0.000000000000E+00
  0.000000000000E+00  0.000000000000E+00  0.000000000000E+00  0.000000000000E+00
  0.000000000000E+00  0.000000000000E+00  0.000000000000E+00  0.000000000000E+00
  0.000000000000E+00  0.000000000000E+00  0.000000000000E+00  0.000000000000E+00
  0.000000000000E+00  0.000000000000E+00  0.000000000000E+00  0.000000000000E+00
  0.000000000000E+00  0.000000000000E+00  0.000000000000E+00  0.000000000000E+00
  0.000000000000E+00  0.000000000000E+00  0.000000000000E+00  0.000000000000E+00
  0.000000000000E+00  0.000000000000E+00  0.000000000000E+00  0.000000000000E+00
  0.000000000000E+00  0.000000000000E+00  0.000000000000E+00  0.000000000000E+00
  0.000000000000E+00  0.000000000000E+00  0.000000000000E+00  0.000000000000E+00
  0.000000000000E+00  0.000000000000E+00  0.000000000000E+00  0.000000000000E+00
  0.000000000000E+00  0.000000000000E+00  0.000000000000E+00  0.000000000000E+00
  0.000000000000E+00  0.000000000000E+00  0.000000000000E+00  0.000000000000E+00
  0.000000000000E+00  0.000000000000E+00  0.000000000000E+00  0.000000000000E+00
  0.000000000000E+00  0.000000000000E+00  0.000000000000E+00  0.000000000000E+00
  0.000000000000E+00  0.000000000000E+00  0.000000000000E+00  0.000000000000E+00
  0.000000000000E+00  0.000000000000E+00  0.000000000000E+00  0.000000000000E+00
  0.000000000000E+00  0.000000000000E+00
</data>
</radfunc>
</pseudocore-charge>
<semilocal-potentials set="scalar_relativistic">
<slps n="4" l="s" rc="1.60261043273" eref="-4.39176262415">
<radfunc>
<data npts="290">
 -1.972381347081E+01 -1.972507469139E+01 -1.972884386563E+01 -1.973512874759E+01
 -1.974385984484E+01 -1.975532786158E+01 -1.976992323591E+01 -1.978660808405E+01
 -1.980533262482E+01 -1.982712065723E+01 -1.985161801565E+01 -1.987817124747E+01
 -1.991016015911E+01 -1.994345025455E+01 -1.998256493857E+01 -2.002146020872E+01
 -2.006604103267E+01 -2.010809408256E+01 -2.015513279908E+01 -2.020770054028E+01
 -2.026638731707E+01 -2.031816909088E+01 -2.037462184427E+01 -2.043611201118E+01
 -2.050302353175E+01 -2.057575620829E+01 -2.065472336735E+01 -2.071829471138E+01
 -2.078579241782E+01 -2.085739854777E+01 -2.093329452150E+01 -2.101365944323E+01
 -2.109866815739E+01 -2.118848901260E+01 -2.128328131015E+01 -2.138319241441E+01
 -2.148835450413E+01 -2.159888094615E+01 -2.167559121563E+01 -2.175474672896E+01
 -2.183636177158E+01 -2.192044396071E+01 -2.200699354522E+01 -2.209600266971E+01
 -2.218745460382E+01 -2.228132293763E+01 -2.237757074485E+01 -2.247614971553E+01
 -2.257699926064E+01 -2.268004559119E+01 -2.278520077514E+01 -2.289236177556E+01
 -2.300140947429E+01 -2.311220768550E+01 -2.322460216418E+01 -2.333841961517E+01
 -2.345346670850E+01 -2.356952910758E+01 -2.368637051709E+01 -2.380373175791E+01
 -2.392132987694E+01 -2.403885730014E+01 -2.415598103756E+01 -2.427234194973E+01
 -2.438755408536E+01 -2.450120410082E+01 -2.461285077257E+01 -2.466777725226E+01
 -2.472202461448E+01 -2.477552971385E+01 -2.482822761250E+01 -2.488005157910E+01
 -2.493093309035E+01 -2.498080183497E+01 -2.502958572023E+01 -2.507721088134E+01
 -2.512360169361E+01 -2.516868078772E+01 -2.521236906799E+01 -2.525458573407E+01
 -2.529524830588E+01 -2.533427265222E+01 -2.537157302295E+01 -2.540706208501E+01
 -2.544065096237E+01 -2.547224928008E+01 -2.550176521241E+01 -2.552910553539E+01
 -2.555417568373E+01 -2.557687981228E+01 -2.559712086217E+01 -2.561480063162E+01
 -2.562981985165E+01 -2.564207826673E+01 -2.565147472039E+01 -2.565790724599E+01
 -2.566127316267E+01 -2.566146917657E+01 -2.565839148744E+01 -2.565193590079E+01
 -2.564199794555E+01 -2.562847299762E+01 -2.561125640927E+01 -2.559024364481E+01
 -2.556533042254E+01 -2.553641286365E+01 -2.550338764806E+01 -2.546615217800E+01
 -2.542460474965E+01 -2.537864473367E+01 -2.532817276521E+01 -2.527309094437E+01
 -2.521330304819E+01 -2.514871475517E+01 -2.507923388382E+01 -2.500477064656E+01
 -2.492523792085E+01 -2.484055153922E+01 -2.475063060038E+01 -2.465539780381E+01
 -2.455477981011E+01 -2.444870763016E+01 -2.433711704597E+01 -2.421994906647E+01
 -2.409715042196E+01 -2.396867410087E+01 -2.383447993289E+01 -2.369453522292E+01
 -2.354881543996E+01 -2.339730496591E+01 -2.323999790858E+01 -2.307689898356E+01
 -2.290802446923E+01 -2.273340323877E+01 -2.255307787223E+01 -2.236710585078E+01
 -2.217556083379E+01 -2.197853401750E+01 -2.177613557139E+01 -2.156849614548E+01
 -2.135576843745E+01 -2.113812880412E+01 -2.091577889568E+01 -2.068894728449E+01
 -2.045789105223E+01 -2.022289729030E+01 -1.998428445828E+01 -1.974240353392E+01
 -1.949763887664E+01 -1.925040871381E+01 -1.900116514674E+01 -1.875039356134E+01