<?xml version="1.0" encoding="UTF-8" ?>
<psml version="1.1" energy_unit="hartree" length_unit="bohr"
 uuid="53488e50-1d60-11e8-70bf-61c5be15f701"
 xmlns="http://esl.cecam.org/PSML/ns/1.1">
<provenance creator="ONCVPSP-3.3.0+psml-3.3.0-73 (scalar-relativistic)"
 date="2018-03-01">
<annotation action="semilocal-pseudopotential-generation"
 action-cont="projectors-generation" />
<input-file name="oncvpsp-input">
<![CDATA[# atsym z nc nv iexc psfile
In 49 8 3 -116133 upf
# n l f
1 0 2.0
2 0 2.0
2 1 6.0
3 0 2.0
3 1 6.0
3 2 10.0
4 0 2.0
4 1 6.0
4 2 10.0
5 0 2.0
5 1 1.0
# lmax
2
# l rc ep ncon nbas qcut
0 2.1 0.0 5 8 2.8
1 2.35 0.0 5 8 2.8
2 1.85 0.0 4 7 8.2
# lloc lpopt rc5 dvloc0
4 5 1.7 0.0
# l nproj debl
0 2 1.1
1 2 3.0
2 2 1.5
# icmod fcfact
3 5 1.44
# epsh1 epsh2 depsh
-12.0 12.0 0.02
# rlmax drl
6.0 0.01
 0
]]>
</input-file>
</provenance>
<pseudo-atom-spec atomic-label="In" atomic-number="49" z-pseudo="13"
 flavor="Hamann&apos;s oncvpsp" relativity="scalar" spin-dft="no"
 core-corrections="yes">
<annotation pseudo-energy="-56.5472291136" />
<exchange-correlation>
<annotation oncvpsp-xc-code="-116133" oncvpsp-xc-type="libxc-interface" />
<libxc-info number-of-functionals="2">
<functional name="Perdew, Burke &amp; Ernzerhof SOL (GGA)" type="exchange"
 id="116" />
<functional name="Perdew, Burke &amp; Ernzerhof SOL (GGA)" type="correlation"
 id="133" />
</libxc-info>
</exchange-correlation>
<valence-configuration total-valence-charge="13">
<shell n="4" l="d" occupation="10" />
<shell n="5" l="s" occupation="2" />
<shell n="5" l="p" occupation="1" />
</valence-configuration>
</pseudo-atom-spec>
<grid npts="457">
<annotation type="sampled from oncvpsp log grid"
 recipe="r(i:1..N) = r1*exp(a*(i-1)) + r=0; resampled"
 recipe-cont="r1: scale; a: step" scale="0.102040816327E-04"
 step="0.119285708653E-01" delta="0.500000000000E-02" rmax="44.1581064066" />
<grid-data>
  0.000000000000E+00  5.042436366198E-03  1.007187092528E-02  1.510941245291E-02
  2.011777176121E-02  2.523536637175E-02  3.054202401815E-02  3.566518465412E-02
  4.066587435065E-02  4.581790627188E-02  5.101053189425E-02  5.611822836574E-02
  6.173735967777E-02  6.711377067229E-02  7.295838755272E-02  7.837152581763E-02
  8.418629118611E-02  8.936016040508E-02  9.485200209104E-02  1.006813580000E-01
  1.068689708730E-01  1.120917571602E-01  1.175697858846E-01  1.233155309823E-01
  1.293420760023E-01  1.356631438985E-01  1.422931282787E-01  1.474773974107E-01
  1.528505487941E-01  1.584194641135E-01  1.641912757790E-01  1.701733760607E-01
  1.763734265569E-01  1.827993680065E-01  1.894594304590E-01  1.963621438154E-01
  2.035163487527E-01  2.109312080467E-01  2.160239311338E-01  2.212396129270E-01
  2.265812221416E-01  2.320517991689E-01  2.376544578081E-01  2.433923870374E-01
  2.492688528300E-01  2.552872000128E-01  2.614508541699E-01  2.677633235929E-01
  2.742282012778E-01  2.808491669694E-01  2.876299892567E-01  2.945745277173E-01
  3.016867351146E-01  3.089706596472E-01  3.164304472537E-01  3.240703439722E-01
  3.318946983570E-01  3.399079639542E-01  3.481147018359E-01  3.565195831970E-01
  3.651273920137E-01  3.739430277665E-01  3.829715082289E-01  3.922179723236E-01
  4.016876830473E-01  4.113860304668E-01  4.213185347864E-01  4.263743572039E-01
  4.314908494903E-01  4.366687396842E-01  4.419087645604E-01  4.472116697351E-01
  4.525782097720E-01  4.580091482892E-01  4.635052580687E-01  4.690673211655E-01
  4.746961290195E-01  4.803924825677E-01  4.861571923585E-01  4.919910786669E-01
  4.978949716109E-01  5.038697112702E-01  5.099161478054E-01  5.160351415791E-01
  5.222275632780E-01  5.284942940374E-01  5.348362255658E-01  5.412542602726E-01
  5.477493113959E-01  5.543223031326E-01  5.609741707702E-01  5.677058608195E-01
  5.745183311493E-01  5.814125511231E-01  5.883895017366E-01  5.954501757574E-01
  6.025955778665E-01  6.098267248009E-01  6.171446454985E-01  6.245503812445E-01
  6.320449858194E-01  6.396295256493E-01  6.473050799571E-01  6.550727409165E-01
  6.629336138075E-01  6.708888171732E-01  6.789394829793E-01  6.870867567751E-01
  6.953317978564E-01  7.036757794306E-01  7.121198887838E-01  7.206653274492E-01
  7.293133113786E-01  7.380650711151E-01  7.469218519685E-01  7.558849141921E-01
  7.649555331624E-01  7.741349995604E-01  7.834246195551E-01  7.928257149898E-01
  8.023396235697E-01  8.119676990525E-01  8.217113114411E-01  8.315718471784E-01
  8.415507093446E-01  8.516493178567E-01  8.618691096710E-01  8.722115389870E-01
  8.826780774549E-01  8.932702143843E-01  9.039894569569E-01  9.148373304404E-01
  9.258153784057E-01  9.369251629466E-01  9.481682649019E-01  9.595462840808E-01
  9.710608394897E-01  9.827135695636E-01  9.945061323984E-01  1.006440205987E+00
  1.018517488459E+00  1.030739698321E+00  1.043108574700E+00  1.055625877597E+00
  1.068293388128E+00  1.081112908785E+00  1.094086263691E+00  1.107215298855E+00
  1.120501882441E+00  1.133947905031E+00  1.147555279891E+00  1.161325943250E+00
  1.175261854569E+00  1.189364996824E+00  1.203637376785E+00  1.218081025307E+00
  1.232697997611E+00  1.247490373582E+00  1.262460258065E+00  1.277609781162E+00
  1.292941098536E+00  1.308456391718E+00  1.324157868419E+00  1.340047762840E+00
  1.356128335994E+00  1.372401876026E+00  1.388870698538E+00  1.405537146920E+00
  1.422403592684E+00  1.439472435796E+00  1.456746105025E+00  1.474227058286E+00
  1.491917782985E+00  1.509820796381E+00  1.527938645937E+00  1.546273909689E+00
  1.564829196605E+00  1.583607146964E+00  1.602610432728E+00  1.621841757920E+00
  1.641303859016E+00  1.660999505324E+00  1.680931499388E+00  1.701102677380E+00
  1.721515909509E+00  1.742174100423E+00  1.763080189628E+00  1.784237151904E+00
  1.805647997726E+00  1.827315773699E+00  1.849243562983E+00  1.871434485739E+00
  1.893891699568E+00  1.916618399963E+00  1.939617820762E+00  1.962893234612E+00
  1.986447953427E+00  2.010285328868E+00  2.034408752815E+00  2.058821657848E+00
  2.083527517742E+00  2.108529847955E+00  2.133832206131E+00  2.159438192604E+00
  2.185351450916E+00  2.211575668327E+00  2.238114576347E+00  2.264971951263E+00
  2.292151614678E+00  2.319657434054E+00  2.347493323263E+00  2.375663243142E+00
  2.404171202060E+00  2.433021256484E+00  2.462217511562E+00  2.491764121701E+00
  2.521665291161E+00  2.551925274655E+00  2.582548377951E+00  2.613538958486E+00
  2.644901425988E+00  2.676640243100E+00  2.708759926017E+00  2.741265045130E+00
  2.774160225671E+00  2.807450148379E+00  2.841139550160E+00  2.875233224762E+00
  2.909736023459E+00  2.944652855740E+00  2.979988690009E+00  3.015748554289E+00
  3.051937536941E+00  3.088560787384E+00  3.125623516833E+00  3.163130999035E+00
  3.201088571023E+00  3.239501633875E+00  3.278375653482E+00  3.317716161324E+00
  3.357528755259E+00  3.397819100323E+00  3.438592929526E+00  3.479856044681E+00
  3.521614317217E+00  3.563873689024E+00  3.606640173292E+00  3.649919855371E+00
  3.693718893636E+00  3.738043520359E+00  3.782900042604E+00  3.828294843115E+00
  3.874234381232E+00  3.920725193807E+00  3.967773896133E+00  4.015387182886E+00
  4.063571829081E+00  4.112334691030E+00  4.161682707322E+00  4.211622899810E+00
  4.262162374608E+00  4.313308323103E+00  4.365068022981E+00  4.417448839256E+00
  4.470458225327E+00  4.524103724031E+00  4.578392968720E+00  4.633333684344E+00
  4.688933688556E+00  4.745200892819E+00  4.802143303533E+00  4.859769023175E+00
  4.918086251453E+00  4.977103286471E+00  5.036828525909E+00  5.097270468219E+00
  5.158437713838E+00  5.220338966404E+00  5.282983034001E+00  5.346378830409E+00
  5.410535376374E+00  5.475461800890E+00  5.541167342501E+00  5.607661350611E+00
  5.674953286818E+00  5.743052726260E+00  5.811969358975E+00  5.881712991283E+00
  5.952293547178E+00  6.023721069745E+00  6.096005722582E+00  6.169157791252E+00
  6.243187684748E+00  6.318105936964E+00  6.393923208208E+00  6.470650286707E+00
  6.548298090147E+00  6.626877667229E+00  6.706400199236E+00  6.786877001626E+00
  6.868319525646E+00  6.950739359954E+00  7.034148232273E+00  7.118558011060E+00
  7.203980707193E+00  7.290428475679E+00  7.377913617388E+00  7.466448580796E+00
  7.556045963766E+00  7.646718515331E+00  7.738479137515E+00  7.831340887165E+00
  7.925316977811E+00  8.020420781545E+00  8.116665830923E+00  8.214065820894E+00
  8.312634610745E+00  8.412386226074E+00  8.513334860787E+00  8.615494879116E+00
  8.718880817666E+00  8.823507387478E+00  8.929389476128E+00  9.036542149841E+00
  9.144980655639E+00  9.254720423507E+00  9.365777068589E+00  9.478166393412E+00
  9.591904390133E+00  9.707007242815E+00  9.823491329728E+00  9.941373225685E+00
  1.006066970439E+01  1.018139774085E+01  1.030357451374E+01  1.042721740790E+01
  1.055234401680E+01  1.067897214500E+01  1.080711981074E+01  1.093680524847E+01
  1.106804691145E+01  1.120086347439E+01  1.133527383608E+01  1.147129712211E+01
  1.160895268758E+01  1.174826011983E+01  1.188923924126E+01  1.203191011216E+01
  1.217629303351E+01  1.232240854991E+01  1.247027745251E+01  1.261992078194E+01
  1.277135983132E+01  1.292461614930E+01  1.307971154309E+01  1.323666808160E+01
  1.339550809858E+01  1.355625419577E+01  1.371892924612E+01  1.388355639707E+01
  1.405015907383E+01  1.421876098272E+01  1.438938611451E+01  1.456205874789E+01
  1.473680345286E+01  1.491364509430E+01  1.509260883543E+01  1.527372014145E+01
  1.545700478315E+01  1.564248884055E+01  1.583019870663E+01  1.602016109111E+01
  1.621240302421E+01  1.640695186050E+01  1.660383528282E+01  1.680308130622E+01
  1.700471828189E+01  1.720877490128E+01  1.741528020009E+01  1.762426356249E+01
  1.783575472524E+01  1.804978378194E+01  1.826638118733E+01  1.848557776158E+01
  1.870740469471E+01  1.893189355105E+01  1.915907627366E+01  1.938898518895E+01
  1.962165301122E+01  1.985711284735E+01  2.009539820152E+01  2.033654297994E+01
  2.058058149570E+01  2.082754847364E+01  2.107747905533E+01  2.133040880399E+01
  2.158637370964E+01  2.184541019416E+01  2.210755511649E+01  2.237284577788E+01
  2.264131992722E+01  2.291301576634E+01  2.318797195554E+01  2.346622761901E+01
  2.374782235043E+01  2.403279621864E+01  2.432118977326E+01  2.461304405054E+01
  2.490840057915E+01  2.520730138610E+01  2.550978900273E+01  2.581590647077E+01
  2.612569734841E+01  2.643920571660E+01  2.675647618519E+01  2.707755389942E+01
  2.740248454621E+01  2.773131436076E+01  2.806409013309E+01  2.840085921469E+01
  2.874166952527E+01  2.908656955957E+01  2.943560839428E+01  2.978883569502E+01
  3.014630172336E+01  3.050805734404E+01  3.087415403217E+01  3.124464388055E+01
  3.161957960712E+01  3.199901456240E+01  3.238300273715E+01  3.277159877000E+01
  3.316485795524E+01  3.356283625070E+01  3.396559028571E+01  3.437317736914E+01
  3.478565549757E+01  3.520308336354E+01  3.562552036390E+01  3.605302660827E+01
  3.648566292757E+01  3.692349088270E+01  3.736657277329E+01  3.781497164657E+01
  3.826875130633E+01  3.872797632200E+01  3.919271203787E+01  3.966302458232E+01
  4.013898087731E+01  4.062064864784E+01  4.110809643161E+01  4.160139358879E+01
  4.210061031186E+01  4.260581763560E+01  4.311708744723E+01  4.363449249659E+01
  4.415810640655E+01
</grid-data>
</grid>
<valence-charge total-charge="13" is-unscreening-charge="yes"
 rescaled-to-z-pseudo="no">
<radfunc>
<data npts="457">
  7.597011276237E-03  7.599463437478E-03  7.608849232834E-03  7.631363421825E-03
  7.676905656452E-03  7.761986725082E-03  7.911883278042E-03  8.140547090522E-03
  8.470289734524E-03  8.951825346729E-03  9.619650444723E-03  1.049562379739E-02
  1.176259812555E-02  1.332876147699E-02  1.549470765456E-02  1.800099578950E-02
  2.131073727938E-02  2.486556756808E-02  2.934566508048E-02  3.498995872726E-02
  4.209781561919E-02  4.908656594111E-02  5.748359777514E-02  6.756770303091E-02
  7.967098138227E-02  9.418839122152E-02  1.115887968256E-01  1.268615651262E-01
  1.443373366913E-01  1.643228371644E-01  1.871647839398E-01  2.132544489832E-01
  2.430325830458E-01  2.769946876522E-01  3.156966063104E-01  3.597603872013E-01
  4.098803453241E-01  4.668292218142E-01  5.090086738634E-01  5.548784627037E-01
  6.047333000996E-01  6.588871753735E-01  7.176739530233E-01  7.814478707846E-01
  8.505839120270E-01  9.254780227405E-01  1.006547139453E+00  1.094228990238E+00
  1.188981626556E+00  1.291282639067E+00  1.401628005802E+00  1.520530516314E+00
  1.648517710708E+00  1.786129267915E+00  1.933913773463E+00  2.092424793430E+00
  2.262216178554E+00  2.443836520912E+00  2.637822685503E+00  2.844692340895E+00
  3.064935417285E+00  3.299004427383E+00  3.547303596019E+00  3.810176758941E+00
  4.087894010496E+00  4.380637104488E+00  4.688483643088E+00  4.848062325963E+00
  5.011390125895E+00  5.178439733590E+00  5.349173975583E+00  5.523545209006E+00
  5.701494708498E+00  5.882952047727E+00  6.067834478240E+00  6.256046308671E+00
  6.447478287680E+00  6.642006994281E+00  6.839494239608E+00  7.039786484470E+00
  7.242714277435E+00  7.448091718498E+00  7.655715953792E+00  7.865366707101E+00
  8.076805854313E+00  8.289777047266E+00  8.504005393750E+00  8.719197200732E+00
  8.935039788110E+00  9.151201380566E+00  9.367331085214E+00  9.583058962954E+00
  9.797996201438E+00  1.001173539764E+01  1.022385095791E+01  1.043389962331E+01
  1.064142112768E+01  1.084593899580E+01  1.104696148816E+01  1.124398269888E+01
  1.143648381194E+01  1.162393452078E+01  1.180579461485E+01  1.198151573578E+01
  1.215054330484E+01  1.231231862142E+01  1.246628113133E+01  1.261187086164E+01
  1.274853101697E+01  1.287571073043E+01  1.299286795992E+01  1.309947251869E+01
  1.319500922626E+01  1.327898116393E+01  1.335091301608E+01  1.341035447651E+01
  1.345688369608E+01  1.349011074580E+01  1.350968106699E+01  1.351527887790E+01
  1.350663050393E+01  1.348350759714E+01  1.344573020851E+01  1.339316967572E+01
  1.332575128796E+01  1.324345668878E+01  1.314632597845E+01  1.303445947711E+01
  1.290801911198E+01  1.276722939290E+01  1.261237794339E+01  1.244381555741E+01
  1.226195575552E+01  1.206727381912E+01  1.186030528621E+01  1.164164389812E+01
  1.141193899302E+01  1.117189234912E+01  1.092225448774E+01  1.066382045427E+01
  1.039742510318E+01  1.012393792119E+01  9.844257430918E+00  9.559305225271E+00
  9.270019690045E+00  8.977349479502E+00  8.682246815597E+00  8.385660686887E+00
  8.088530027289E+00  7.791776957750E+00  7.496300175385E+00  7.202968574644E+00
  6.912615183463E+00  6.626031494173E+00  6.343962264038E+00  6.067100853911E+00
  5.796085165537E+00  5.531494228740E+00  5.273845479274E+00  5.023592756667E+00
  4.781125039293E+00  4.546765921369E+00  4.320773823979E+00  4.103342919864E+00
  3.894604739886E+00  3.694630418178E+00  3.503433523178E+00  3.320973413380E+00
  3.147159049846E+00  2.981853192454E+00  2.824876903614E+00  2.676014281696E+00
  2.535017346702E+00  2.401611002535E+00  2.275498003488E+00  2.156363856935E+00
  2.043881599486E+00  1.937716389679E+00  1.837529866431E+00  1.742984228582E+00
  1.653745996841E+00  1.569489425012E+00  1.489899532507E+00  1.414674734817E+00
  1.343529052901E+00  1.276193886415E+00  1.212419339675E+00  1.151975093393E+00
  1.094650819976E+00  1.040256145661E+00  9.886201690409E-01  9.395905529304E-01
  8.930315119206E-01  8.488188257301E-01  8.068336551963E-01  7.669625309848E-01
  7.290971871802E-01  6.931344231506E-01  6.589759389462E-01  6.265281547100E-01
  5.957020247973E-01  5.664128571681E-01  5.385801482876E-01  5.121274412947E-01
  4.869822022503E-01  4.630756927164E-01  4.403428272483E-01  4.187220227005E-01
  3.981550419714E-01  3.785868350027E-01  3.599653805382E-01  3.422415319989E-01
  3.253688708728E-01  3.093035703587E-01  2.940042680420E-01  2.794319431521E-01
  2.655497965559E-01  2.523231325356E-01  2.397192442243E-01  2.277073023191E-01
  2.162582474797E-01  2.053446865949E-01  1.949407930800E-01  1.850222113219E-01
  1.755659653548E-01  1.665503718135E-01  1.579549571779E-01  1.497603792990E-01
  1.419483531667E-01  1.345015808594E-01  1.274036855974E-01  1.206391498015E-01
  1.141932570457E-01  1.080520377821E-01  1.022022187010E-01  9.663117558689E-02
  9.132688951920E-02  8.627790626609E-02  8.147329871417E-02  7.690263217140E-02
  7.255593239299E-02  6.842365616255E-02  6.449666427570E-02  6.076619677063E-02
  5.722385025424E-02  5.386155717665E-02  5.067156691096E-02  4.764642850098E-02
  4.477897494455E-02  4.206230888616E-02  3.948978959885E-02  3.705502114127E-02
  3.475184158247E-02  3.257431319326E-02  3.051671350915E-02  2.857352717663E-02
  2.673943849997E-02  2.500932461236E-02  2.337824920032E-02  2.184145671620E-02
  2.039436701850E-02  1.903257038482E-02  1.775182284690E-02  1.654804180151E-02
  1.541730185518E-02  1.435583086457E-02  1.336000613898E-02  1.242635077159E-02
  1.155153007511E-02  1.073234809557E-02  9.965744183481E-03  9.248789604122E-03
  8.578684171382E-03  7.952752892590E-03  7.368442614087E-03  6.823318659944E-03
  6.315061458485E-03  5.841463153455E-03  5.400424198694E-03  4.989949936977E-03
  4.608147165314E-03  4.253220690418E-03  3.923469879266E-03  3.617285210660E-03
  3.333144834482E-03  3.069611145922E-03  2.825327382326E-03  2.599014250510E-03
  2.389466592412E-03  2.195550096827E-03  2.016198064700E-03  1.850408235076E-03
  1.697239678350E-03  1.555809762870E-03  1.425291200383E-03  1.304909175137E-03
  1.193938560789E-03  1.091701228585E-03  9.975634496077E-04  9.109333932132E-04
  8.312587231400E-04  7.580242921756E-04  6.907499356783E-04  6.289883637312E-04
  5.723231512174E-04  5.203668246608E-04  4.727590442878E-04  4.291648794116E-04
  3.892731749399E-04  3.527950065445E-04  3.194622218106E-04  2.890260645033E-04
  2.612558789401E-04  2.359378913478E-04  2.128740649972E-04  1.918810258567E-04
  1.727890554742E-04  1.554411477947E-04  1.396921266320E-04  1.254078205530E-04
  1.124642919822E-04  1.007471174029E-04  9.015071561785E-05  8.057772112141E-05
  7.193839974773E-05  6.415010387028E-05  5.713676455358E-05  5.082841818577E-05
  4.516076525371E-05  4.007475905750E-05  3.551622229724E-05  3.143548959975E-05
  2.778707418566E-05  2.452935700629E-05  2.162429680367E-05  1.903715966552E-05
  1.673626675866E-05  1.469275902882E-05  1.288037775193E-05  1.127525991138E-05
  9.855747457193E-06  8.602209577468E-06  7.496877178918E-06  6.523688833577E-06
  5.668147502054E-06  4.917187391406E-06  4.259050347918E-06  3.683171222552E-06
  3.180071680129E-06  2.741261952853E-06  2.359150065359E-06  2.026958082236E-06
  1.738644950690E-06  1.488835530849E-06  1.272755424630E-06  1.086171231360E-06
  9.253358747354E-07  7.869386613645E-07  6.680597463340E-07  5.661286959968E-07
  4.788868526472E-07  4.043532199738E-07  3.407936022046E-07  2.866927436840E-07
  2.407292292710E-07  2.017529193862E-07  1.687647067524E-07  1.408983948366E-07
  1.174045106717E-07  9.763587708794E-08  8.103478137061E-08  6.712158895724E-08
  5.548466195815E-08  4.577145300355E-08  3.768065516487E-08  3.095529844962E-08
  2.537669261470E-08  2.075912477391E-08  1.694522848763E-08  1.380194871813E-08
  1.121703421610E-08  9.095995583357E-09  7.359473443990E-09  5.940966867574E-09
  4.784877440752E-09  3.844829196788E-09  3.082229008509E-09  2.465036049288E-09
  1.966712555150E-09  1.565331398198E-09  1.242818935138E-09  9.843142452271E-10
  7.776282438315E-10  6.127882729440E-10  4.816556502465E-10  3.776053241521E-10
  2.952582535099E-10  2.302584258074E-10  1.790875642076E-10  1.389115678597E-10
  1.074535966911E-10  8.288946523698E-11  6.376166274652E-11  4.890888047910E-11
  3.740841235449E-11  2.852921153417E-11  2.169374170492E-11  1.644706554748E-11
  1.243187100220E-11  9.368354624507E-12  7.038065984520E-12  5.270972492327E-12
  3.935134423884E-12  2.928488954278E-12  2.172332873367E-12  1.606169137221E-12
  1.183644893579E-12  8.693601729806E-13  6.363688268867E-13  4.642280294589E-13
  3.374810243527E-13  2.444808796272E-13  1.764817305622E-13  1.269391134328E-13
  9.097316928682E-14  6.495826442674E-14  4.621038138722E-14  3.274985124977E-14
  2.312193056248E-14  1.626162466700E-14  1.139222885255E-14  7.949466764101E-15
  5.524985834065E-15  3.824435174116E-15  2.636484577319E-15  1.810020668452E-15
  1.237429620772E-15  8.423919263703E-16  5.710082297100E-16  3.853740942116E-16
  2.589475809140E-16  1.732237036576E-16  1.153574208496E-16  7.647206951596E-17
  5.046093024787E-17  3.314197938232E-17  2.166445287599E-17  1.409412117295E-17
  9.124807031915E-18  5.878663802018E-18  3.768563852736E-18  2.403740633036E-18
  1.525401498263E-18  0.000000000000E+00  0.000000000000E+00  0.000000000000E+00
  0.000000000000E+00
</data>
</radfunc>
</valence-charge>
<pseudocore-charge matching-radius="0.925815378406"
 number-of-continuous-derivatives="4">
<annotation model-charge-form="Teter function with specified parameters" />
<radfunc>
<data npts="290">
  6.287550509005E+01  6.287266328706E+01  6.286416788660E+01  6.284999365211E+01
  6.283028454767E+01  6.280436550089E+01  6.277132594807E+01  6.273348443216E+01
  6.269092499778E+01  6.264127962510E+01  6.258530223834E+01  6.252443631699E+01
  6.245084525250E+01  6.237395054902E+01  6.228319420091E+01  6.219250602114E+01
  6.208801507739E+01  6.198890837084E+01  6.187742313706E+01  6.175203857913E+01
  6.161105386201E+01  6.148576417600E+01  6.134820480983E+01  6.119720449568E+01
  6.103148651905E+01  6.084966057766E+01  6.065021431035E+01  6.048808297644E+01
  6.031437442754E+01  6.012829795027E+01  5.992901435687E+01  5.971563388380E+01
  5.948721414748E+01  5.924275819006E+01  5.898121265441E+01  5.870146613388E+01
  5.840234775057E+01  5.808262602376E+01  5.785739599670E+01  5.762203729381E+01
  5.737613942783E+01  5.711927979450E+01  5.685102379889E+01  5.657092504866E+01
  5.627852562184E+01  5.597335641758E+01  5.565493759878E+01  5.532277913619E+01
  5.497638146425E+01  5.461523625959E+01  5.423882735369E+01  5.384663179206E+01
  5.343812105274E+01  5.301276243761E+01  5.257002065067E+01  5.210935957772E+01
  5.163024428259E+01  5.113214323521E+01  5.061453078706E+01  5.007688990962E+01
  4.951871521132E+01  4.893951624806E+01  4.833882114172E+01  4.771618052035E+01
  4.707117179208E+01  4.640340376330E+01  4.571252160950E+01  4.535831310174E+01
  4.499821220413E+01  4.463218722454E+01  4.426020980776E+01  4.388225513280E+01
  4.349830211563E+01  4.310833361727E+01  4.271233665698E+01  4.231030263062E+01
  4.190222753372E+01  4.148811218928E+01  4.106796247983E+01  4.064178958371E+01
  4.020961021495E+01  3.977144686671E+01  3.932732805752E+01  3.887728858024E+01
  3.842136975289E+01  3.795961967108E+01  3.749209346129E+01  3.701885353434E+01
  3.653996983855E+01  3.605552011145E+01  3.556559012963E+01  3.507027395558E+01
  3.456967418061E+01  3.406390216299E+01  3.355307825998E+01  3.303733205289E+01
  3.251680256374E+01  3.199163846232E+01  3.146199826236E+01  3.092805050525E+01
  3.038997393000E+01  2.984795762776E+01  2.930220117933E+01  2.875291477400E+01
  2.820031930797E+01  2.764464646052E+01  2.708613874616E+01  2.652504954083E+01
  2.596164308019E+01  2.539619442810E+01  2.482898941329E+01  2.426032453211E+01
  2.369050681555E+01  2.311985365833E+01  2.254869260822E+01  2.197736111353E+01
  2.140620622691E+01  2.083558426367E+01  2.026586041278E+01  1.969740829886E+01
  1.913060949378E+01  1.856585297631E+01  1.800353453865E+01  1.744405613887E+01
  1.688782519826E+01  1.633525384325E+01  1.578675809132E+01  1.524275698114E+01
  1.470367164700E+01  1.416992433849E+01  1.364193738607E+01  1.312013211450E+01
  1.260492770547E+01  1.209674001232E+01  1.159598032929E+01  1.110305411893E+01
  1.061835970146E+01  1.014228691062E+01  9.675215720960E+00  9.217514852324E+00
  8.769540357601E+00  8.331634200670E+00  7.904122831873E+00  7.487315769019E+00
  7.081504192442E+00  6.686959563204E+00  6.303932273995E+00  5.932650342780E+00
  5.573318159619E+00  5.226115297429E+00  4.891195397755E+00  4.568685142753E+00
  4.258683324715E+00  3.961260024428E+00  3.676455909532E+00  3.404281663772E+00
  3.144717557649E+00  2.897713170414E+00  2.663187272676E+00  2.441027877993E+00
  2.231092470849E+00  2.033208417162E+00  1.847173562168E+00  1.672757018963E+00
  1.509700149317E+00  1.357717736538E+00  1.216499348183E+00  1.085710884322E+00
  9.649963048556E-01  8.539795271044E-01  7.522664825690E-01  6.594473193833E-01
  5.750987346697E-01  4.987864187127E-01  4.300675906858E-01  3.684936036292E-01
  3.136125945237E-01  2.649721536988E-01  2.221219864869E-01  1.846165390516E-01
  1.520175597102E-01  1.238965668855E-01  9.983719510173E-02  7.943739120360E-02
  6.231143425971E-02  4.809175441548E-02  3.643052829563E-02  2.700103140561E-02
  1.949873132461E-02  1.364210927997E-02  9.173201889866E-03  5.857859391518E-03
  3.485721449646E-03  1.869916570604E-03  8.464961196372E-04  2.736188341127E-04
  3.050641666740E-05  1.619514806799E-05  1.481123487918E-04  3.605098137604E-04
  6.027889280274E-04  8.377539382791E-04  1.039830720497E-03  1.193288286698E-03
  1.290499180370E-03  1.330272820305E-03  1.316292800277E-03  1.255685208543E-03
  1.157740304298E-03  1.032804521583E-03  8.913539402631E-04  7.432542714101E-04
  5.972062735627E-04  4.603695812283E-04  3.381524232023E-04  2.341498615536E-04
  1.502091964933E-04  8.659822855404E-05  4.225027407719E-05  1.505926584738E-05
  2.198950090109E-06  4.420614835360E-07  6.458301715549E-06  1.707378528783E-05
  2.947911592623E-05  4.137814367785E-05  5.107442628760E-05  5.749717136179E-05
  6.017267422413E-05  5.915073083007E-05  5.489799056170E-05  4.817158640994E-05
  3.988658984584E-05  3.098992438565E-05  2.235146425602E-05  1.468035177123E-05
  8.471362156174E-06  3.982741649131E-06  1.243670689002E-06  8.666776293667E-08
  1.981115103662E-07  1.178803930600E-06  2.606215277294E-06  4.090724225482E-06
  5.319672188445E-06  6.085172451860E-06  6.294068977561E-06  5.960907727089E-06
  5.186951612089E-06  4.129870543582E-06  2.969583630400E-06  1.875741777558E-06
  9.815553448382E-07  3.672469376554E-07  5.458965487552E-08  0.000000000000E+00
  0.000000000000E+00  0.000000000000E+00  0.000000000000E+00  0.000000000000E+00
  0.000000000000E+00  0.000000000000E+00  0.000000000000E+00  0.000000000000E+00
  0.000000000000E+00  0.000000000000E+00  0.000000000000E+00  0.000000000000E+00
  0.000000000000E+00  0.000000000000E+00  0.000000000000E+00  0.000000000000E+00
  0.000000000000E+00  0.000000000000E+00  0.000000000000E+00  0.000000000000E+00
  0.000000000000E+00  0.000000000000E+00  0.000000000000E+00  0.000000000000E+00
  0.000000000000E+00  0.000000000000E+00  0.000000000000E+00  0.000000000000E+00
  0.000000000000E+00  0.000000000000E+00  0.000000000000E+00  0.000000000000E+00
  0.000000000000E+00  0.000000000000E+00
</data>
</radfunc>
</pseudocore-charge>
<semilocal-potentials set="scalar_relativistic">
<slps n="5" l="s" rc="2.10852984796" eref="-0.303394391260">
<radfunc>
<data npts="290">
  6.058401299062E+00  6.055151125761E+00  6.045440469034E+00  6.029257061099E+00
  6.006792455898E+00  5.977317221596E+00  5.939855325341E+00  5.897100611962E+00
  5.849208179540E+00  5.793598208711E+00  5.731224288748E+00  5.663795728581E+00
  5.582811354984E+00  5.498818478953E+00  5.400499885504E+00  5.303126821707E+00
  5.192000098998E+00  5.087640926680E+00  4.971441960788E+00  4.842245011571E+00
  4.698825217122E+00  4.572988418058E+00  4.436550133833E+00  4.288818433336E+00
  4.129094989477E+00  3.956683549352E+00  3.770900119728E+00  3.622389027790E+00
  3.465719411711E+00  3.300642127208E+00  3.126927865775E+00  2.944371559041E+00
  2.752797101750E+00  2.552062363504E+00  2.342064447808E+00  2.122745144410E+00
  1.894096507696E+00  1.656166480285E+00  1.492441466794E+00  1.324687353082E+00
  1.152966756236E+00  9.773568509633E-01  7.979499854388E-01  6.148542499736E-01
  4.281939903624E-01  2.381102577120E-01  4.476118661326E-02 -1.516777063220E-01
 -3.510133112528E-01 -5.530348085225E-01 -7.575136534741E-01 -9.642036688137E-01
 -1.172841249945E+00 -1.383145687872E+00 -1.594819613387E+00 -1.807549565298E+00
 -2.021006684513E+00 -2.234847534802E+00 -2.448715050150E+00 -2.662239607741E+00
 -2.875040224848E+00 -3.086725877307E+00 -3.296896936764E+00 -3.505146723671E+00
 -3.711063172978E+00 -3.914230609683E+00 -4.114231631911E+00 -4.212914314641E+00
 -4.310649099917E+00 -4.407384229822E+00 -4.503068230386E+00 -4.597649982842E+00
 -4.691078796594E+00 -4.783304483900E+00 -4.874277436342E+00 -4.963948703085E+00
 -5.052270070999E+00 -5.139194146682E+00 -5.224674440442E+00 -5.308665452299E+00
 -5.391122760068E+00 -5.472003109586E+00 -5.551264507166E+00 -5.628866314316E+00
 -5.704769344818E+00 -5.778935964213E+00 -5.851330191761E+00 -5.921917804914E+00
 -5.990666446358E+00 -6.057545733651E+00 -6.122527371466E+00 -6.185585266433E+00
 -6.246695644570E+00 -6.305837171217E+00 -6.362991073407E+00 -6.418141264537E+00
 -6.471274471152E+00 -6.522380361624E+00 -6.571451676422E+00 -6.618484359607E+00
 -6.663477691113E+00 -6.706434419250E+00 -6.747360892806E+00 -6.786267191968E+00
 -6.823167257182E+00 -6.858079014919E+00 -6.891024499164E+00 -6.922029967292E+00
 -6.951126008815E+00 -6.978347645321E+00 -7.003734419722E+00 -7.027330472780E+00
 -7.049184604665E+00 -7.069350319156E+00 -7.087885847927E+00 -7.104854152211E+00
 -7.120322899054E+00 -7.134364409236E+00 -7.147055573952E+00 -7.158477737305E+00
 -7.168716541729E+00 -7.177861733587E+00 -7.186006926328E+00 -7.193249318869E+00
 -7.199689367139E+00 -7.205430407117E+00 -7.210578228148E+00 -7.215240595819E+00
 -7.219526724261E+00 -7.223546698383E+00 -7.227410847198E+00 -7.231229070154E+00
 -7.235110119107E+00 -7.239160839346E+00 -7.243485373848E+00 -7.248184335704E+00
 -7.253353954376E+00 -7.259085202164E+00 -7.265462907871E+00 -7.272564865259E+00
 -7.280460944352E+00 -7.289212214054E+00 -7.298870084830E+00 -7.309475480379E+00
 -7.321058047277E+00 -7.333635411505E+00 -7.347212490605E+00 -7.361780869896E+00
 -7.377318250844E+00 -7.393787979221E+00 -7.411138660254E+00 -7.429303867555E+00
 -7.448201952258E+00 -7.467735958650E+00 -7.487793652577E+00 -7.508247669191E+00