<?xml version="1.0" encoding="UTF-8" ?>
<psml version="1.1" energy_unit="hartree" length_unit="bohr"
 uuid="279c70f0-1d60-11e8-46d6-156bfbf7da1a"
 xmlns="http://esl.cecam.org/PSML/ns/1.1">
<provenance creator="ONCVPSP-3.3.0+psml-3.3.0-73 (scalar-relativistic)"
 date="2018-03-01">
<annotation action="semilocal-pseudopotential-generation"
 action-cont="projectors-generation" />
<input-file name="oncvpsp-input">
<![CDATA[# atsym z nc nv iexc psfile
Mo 42 6 4 -116133 upf
# n l f
1 0 2.0
2 0 2.0
2 1 6.0
3 0 2.0
3 1 6.0
3 2 10.0
4 0 2.0
4 1 6.0
4 2 5.0
5 0 1.0
# lmax
2
# l rc ep ncon nbas qcut
0 1.45 0.0 4 7 8.2
1 1.45 0.0 4 7 8.8
2 1.35 0.0 4 7 8.8
# lloc lpopt rc5 dvloc0
4 5 1.25 0.0
# l nproj debl
0 2 1.0
1 2 2.0
2 2 2.0
# icmod fcfact
3 3 1.3
# epsh1 epsh2 depsh
-12.0 12.0 0.02
# rlmax drl
6.0 0.01
 0
]]>
</input-file>
</provenance>
<pseudo-atom-spec atomic-label="Mo" atomic-number="42" z-pseudo="14"
 flavor="Hamann&apos;s oncvpsp" relativity="scalar" spin-dft="no"
 core-corrections="yes">
<annotation pseudo-energy="-68.0717263978" />
<exchange-correlation>
<annotation oncvpsp-xc-code="-116133" oncvpsp-xc-type="libxc-interface" />
<libxc-info number-of-functionals="2">
<functional name="Perdew, Burke &amp; Ernzerhof SOL (GGA)" type="exchange"
 id="116" />
<functional name="Perdew, Burke &amp; Ernzerhof SOL (GGA)" type="correlation"
 id="133" />
</libxc-info>
</exchange-correlation>
<valence-configuration total-valence-charge="14">
<shell n="4" l="s" occupation="2" />
<shell n="4" l="p" occupation="6" />
<shell n="4" l="d" occupation="5" />
<shell n="5" l="s" occupation="1" />
</valence-configuration>
</pseudo-atom-spec>
<grid npts="457">
<annotation type="sampled from oncvpsp log grid"
 recipe="r(i:1..N) = r1*exp(a*(i-1)) + r=0; resampled"
 recipe-cont="r1: scale; a: step" scale="0.119047619048E-04"
 step="0.119285708653E-01" delta="0.500000000000E-02" rmax="44.1174669210" />
<grid-data>
  0.000000000000E+00  5.037795722915E-03  1.006260160451E-02  1.509550699367E-02
  2.009925702039E-02  2.521214181819E-02  3.051391565380E-02  3.563236135451E-02
  4.111599021390E-02  4.632504811410E-02  5.157514903245E-02  5.673938074985E-02
  6.242070819516E-02  6.785662873951E-02  7.289124265956E-02  7.829939911767E-02
  8.410881305485E-02  8.927792067056E-02  9.476470811758E-02  1.005886991673E-01
  1.067706174709E-01  1.119885971355E-01  1.174615843333E-01  1.232020415203E-01
  1.292230402044E-01  1.355382907102E-01  1.421621733986E-01  1.473416713561E-01
  1.527098777334E-01  1.582736678816E-01  1.640401676468E-01  1.700167624959E-01
  1.762111069761E-01  1.826311345182E-01  1.892850675976E-01  1.961814282649E-01
  2.033290490610E-01  2.107370843290E-01  2.158251204930E-01  2.210360022022E-01
  2.263726954394E-01  2.318382377981E-01  2.374357402114E-01  2.431683887231E-01
  2.490394463004E-01  2.550522546919E-01  2.612102363292E-01  2.675168962751E-01
  2.739758242188E-01  2.805906965187E-01  2.873652782955E-01  2.943034255747E-01
  3.014090874817E-01  3.086863084899E-01  3.161392307221E-01  3.237720963086E-01
  3.315892498019E-01  3.395951406491E-01  3.477943257249E-01  3.561914719253E-01
  3.647913588234E-01  3.735988813908E-01  3.826190527831E-01  3.918570071935E-01
  4.013180027752E-01  4.110074246342E-01  4.209307878946E-01  4.259819573493E-01
  4.310937408375E-01  4.362668657276E-01  4.415020681163E-01  4.468000929337E-01
  4.521616940489E-01  4.575876343775E-01  4.630786859900E-01  4.686356302219E-01
  4.742592577846E-01  4.799503688780E-01  4.857097733045E-01  4.915382905842E-01
  4.974367500712E-01  5.034059910720E-01  5.094468629649E-01  5.155602253205E-01
  5.217469480243E-01  5.280079114006E-01  5.343440063374E-01  5.407561344135E-01
  5.472452080264E-01  5.538121505228E-01  5.604578963290E-01  5.671833910850E-01
  5.739895917780E-01  5.808774668793E-01  5.878479964819E-01  5.949021724397E-01
  6.020409985089E-01  6.092654904910E-01  6.165766763769E-01  6.239755964935E-01
  6.314633036514E-01  6.390408632952E-01  6.467093536547E-01  6.544698658986E-01
  6.623235042894E-01  6.702713863409E-01  6.783146429769E-01  6.864544186927E-01
  6.946918717170E-01  7.030281741776E-01  7.114645122677E-01  7.200020864149E-01
  7.286421114519E-01  7.373858167893E-01  7.462344465908E-01  7.551892599499E-01
  7.642515310693E-01  7.734225494421E-01  7.827036200354E-01  7.920960634759E-01
  8.016012162376E-01  8.112204308324E-01  8.209550760024E-01  8.308065369144E-01
  8.407762153574E-01  8.508655299417E-01  8.610759163010E-01  8.714088272966E-01
  8.818657332242E-01  8.924481220229E-01  9.031574994871E-01  9.139953894810E-01
  9.249633341547E-01  9.360628941646E-01  9.472956488946E-01  9.586631966813E-01
  9.701671550415E-01  9.818091609020E-01  9.935908708328E-01  1.005513961283E+00
  1.017580128818E+00  1.029791090364E+00  1.042148583448E+00  1.054654366450E+00
  1.067310218847E+00  1.080117941473E+00  1.093079356771E+00  1.106196309052E+00
  1.119470664761E+00  1.132904312738E+00  1.146499164491E+00  1.160257154465E+00
  1.174180240318E+00  1.188270403202E+00  1.202529648041E+00  1.216960003817E+00
  1.231563523863E+00  1.246342286149E+00  1.261298393583E+00  1.276433974306E+00
  1.291751181998E+00  1.307252196182E+00  1.322939222536E+00  1.338814493206E+00
  1.354880267125E+00  1.371138830330E+00  1.387592496294E+00  1.404243606250E+00
  1.421094529525E+00  1.438147663879E+00  1.455405435846E+00  1.472870301076E+00
  1.490544744689E+00  1.508431281625E+00  1.526532457004E+00  1.544850846488E+00
  1.563389056646E+00  1.582149725326E+00  1.601135522030E+00  1.620349148294E+00
  1.639793338074E+00  1.659470858131E+00  1.679384508428E+00  1.699537122529E+00
  1.719931568000E+00  1.740570746816E+00  1.761457595778E+00  1.782595086927E+00
  1.803986227970E+00  1.825634062706E+00  1.847541671458E+00  1.869712171516E+00
  1.892148717574E+00  1.914854502185E+00  1.937832756211E+00  1.961086749286E+00
  1.984619790277E+00  2.008435227760E+00  2.032536450493E+00  2.056926887899E+00
  2.081610010554E+00  2.106589330681E+00  2.131868402649E+00  2.157450823481E+00
  2.183340233362E+00  2.209540316163E+00  2.236054799957E+00  2.262887457556E+00
  2.290042107047E+00  2.317522612331E+00  2.345332883679E+00  2.373476878284E+00
  2.401958600823E+00  2.430782104033E+00  2.459951489281E+00  2.489470907153E+00
  2.519344558039E+00  2.549576692735E+00  2.580171613048E+00  2.611133672404E+00
  2.642467276473E+00  2.674176883791E+00  2.706267006396E+00  2.738742210473E+00
  2.771607116999E+00  2.804866402403E+00  2.838524799232E+00  2.872587096822E+00
  2.907058141984E+00  2.941942839688E+00  2.977246153764E+00  3.012973107610E+00
  3.049128784901E+00  3.085718330320E+00  3.122746950283E+00  3.160219913687E+00
  3.198142552651E+00  3.236520263283E+00  3.275358506442E+00  3.314662808520E+00
  3.354438762222E+00  3.394692027369E+00  3.435428331697E+00  3.476653471677E+00
  3.518373313337E+00  3.560593793097E+00  3.603320918615E+00  3.646560769638E+00
  3.690319498874E+00  3.734603332860E+00  3.779418572855E+00  3.824771595729E+00
  3.870668854878E+00  3.917116881136E+00  3.964122283710E+00  4.011691751114E+00
  4.059832052128E+00  4.108550036753E+00  4.157852637194E+00  4.207746868840E+00
  4.258239831267E+00  4.309338709242E+00  4.361050773753E+00  4.413383383038E+00
  4.466343983634E+00  4.519940111438E+00  4.574179392775E+00  4.629069545488E+00
  4.684618380034E+00  4.740833800595E+00  4.797723806202E+00  4.855296491876E+00
  4.913560049779E+00  4.972522770376E+00  5.032193043620E+00  5.092579360144E+00
  5.153690312466E+00  5.215534596215E+00  5.278121011370E+00  5.341458463506E+00
  5.405555965068E+00  5.470422636649E+00  5.536067708289E+00  5.602500520788E+00
  5.669730527038E+00  5.737767293362E+00  5.806620500883E+00  5.876299946893E+00
  5.946815546256E+00  6.018177332811E+00  6.090395460805E+00  6.163480206334E+00
  6.237441968810E+00  6.312291272436E+00  6.388038767705E+00  6.464695232918E+00
  6.542271575713E+00  6.620778834621E+00  6.700228180637E+00  6.780630918805E+00
  6.861998489830E+00  6.944342471708E+00  7.027674581369E+00  7.112006676345E+00
  7.197350756461E+00  7.283718965539E+00  7.371123593125E+00  7.459577076243E+00
  7.549092001158E+00  7.639681105172E+00  7.731357278434E+00  7.824133565775E+00
  7.918023168564E+00  8.013039446587E+00  8.109195919946E+00  8.206506270985E+00
  8.304984346237E+00  8.404644158392E+00  8.505499888293E+00  8.607565886952E+00
  8.710856677596E+00  8.815386957727E+00  8.921171601219E+00  9.028225660434E+00
  9.136564368359E+00  9.246203140780E+00  9.357157578469E+00  9.469443469411E+00
  9.583076791044E+00  9.698073712536E+00  9.814450597086E+00  9.932224004252E+00
  1.005141069230E+01  1.017202762061E+01  1.029409195206E+01  1.041762105548E+01
  1.054263250815E+01  1.066914409825E+01  1.079717382742E+01  1.092673991335E+01
  1.105786079231E+01  1.119055512182E+01  1.132484178328E+01  1.146073988468E+01
  1.159826876330E+01  1.173744798846E+01  1.187829736432E+01  1.202083693269E+01
  1.216508697588E+01  1.231106801960E+01  1.245880083583E+01  1.260830644586E+01
  1.275960612321E+01  1.291272139669E+01  1.306767405345E+01  1.322448614209E+01
  1.338317997580E+01  1.354377813551E+01  1.370630347313E+01  1.387077911481E+01
  1.403722846419E+01  1.420567520576E+01  1.437614330823E+01  1.454865702792E+01
  1.472324091226E+01  1.489991980321E+01  1.507871884085E+01  1.525966346694E+01
  1.544277942854E+01  1.562809278168E+01  1.581562989506E+01  1.600541745380E+01
  1.619748246325E+01  1.639185225281E+01  1.658855447984E+01  1.678761713360E+01
  1.698906853920E+01  1.719293736167E+01  1.739925261001E+01  1.760804364133E+01
  1.781934016503E+01  1.803317224701E+01  1.824957031397E+01  1.846856515774E+01
  1.869018793963E+01  1.891447019491E+01  1.914144383725E+01  1.937114116329E+01
  1.960359485725E+01  1.983883799554E+01  2.007690405149E+01  2.031782690011E+01
  2.056164082291E+01  2.080838051278E+01  2.105808107894E+01  2.131077805188E+01
  2.156650738851E+01  2.182530547717E+01  2.208720914289E+01  2.235225565261E+01
  2.262048272044E+01  2.289192851308E+01  2.316663165524E+01  2.344463123510E+01
  2.372596680993E+01  2.401067841164E+01  2.429880655258E+01  2.459039223122E+01
  2.488547693799E+01  2.518410266125E+01  2.548631189318E+01  2.579214763590E+01
  2.610165340753E+01  2.641487324842E+01  2.673185172740E+01  2.705263394813E+01
  2.737726555551E+01  2.770579274217E+01  2.803826225508E+01  2.837472140214E+01
  2.871521805897E+01  2.905980067567E+01  2.940851828378E+01  2.976142050319E+01
  3.011855754923E+01  3.047998023982E+01  3.084574000269E+01  3.121588888273E+01
  3.159047954932E+01  3.196956530391E+01  3.235320008756E+01  3.274143848861E+01
  3.313433575047E+01  3.353194777948E+01  3.393433115283E+01  3.434154312667E+01
  3.475364164419E+01  3.517068534392E+01  3.559273356804E+01  3.601984637086E+01
  3.645208452731E+01  3.688950954164E+01  3.733218365614E+01  3.778016986001E+01
  3.823353189833E+01  3.869233428111E+01  3.915664229248E+01  3.962652199999E+01
  4.010204026399E+01  4.058326474716E+01  4.107026392413E+01  4.156310709122E+01
  4.206186437631E+01  4.256660674883E+01  4.307740602981E+01  4.359433490217E+01
  4.411746692100E+01
</grid-data>
</grid>
<valence-charge total-charge="14" is-unscreening-charge="yes"
 rescaled-to-z-pseudo="no">
<radfunc>
<data npts="457">
  4.959297298132E-02  5.001068945234E-02  5.126018647701E-02  5.334745262690E-02
  5.625502796870E-02  6.008802411454E-02  6.498933235951E-02  7.062404911208E-02
  7.765519384477E-02  8.529818920005E-02  9.396427158700E-02  1.034450943742E-01
  1.149884550528E-01  1.271437815721E-01  1.393879877847E-01  1.536169494353E-01
  1.701682499550E-01  1.860211455769E-01  2.040330896203E-01  2.245161428878E-01
  2.478314171545E-01  2.688019455331E-01  2.920965480116E-01  3.179914014076E-01
  3.467982893887E-01  3.788694642814E-01  4.146031516423E-01  4.440757357717E-01
  4.760721293284E-01  5.108243546537E-01  5.485869243038E-01  5.896389631505E-01
  6.342864808097E-01  6.828647888227E-01  7.357410511394E-01  7.933169488551E-01
  8.560314304863E-01  9.243635069243E-01  9.732949720831E-01  1.025119908149E+00
  1.080013416052E+00  1.138160249847E+00  1.199755101408E+00  1.265002844944E+00
  1.334118730439E+00  1.407328513502E+00  1.484868507296E+00  1.566985540292E+00
  1.653936801452E+00  1.745989552168E+00  1.843420681857E+00  1.946516081520E+00
  2.055569806916E+00  2.170883000216E+00  2.292762536230E+00  2.421519356534E+00
  2.557466452175E+00  2.700916453217E+00  2.852178781288E+00  3.011556319660E+00
  3.179341554481E+00  3.355812140689E+00  3.541225847207E+00  3.735814838460E+00
  3.939779253494E+00  4.153280050210E+00  4.376431091046E+00  4.491646035867E+00
  4.609290458098E+00  4.729361351452E+00  4.851851000735E+00  4.976746646240E+00
  5.104030137632E+00  5.233677577919E+00  5.365658958282E+00  5.499937784623E+00
  5.636470696906E+00  5.775207082447E+00  5.916088684554E+00  6.059049208047E+00
  6.204013923401E+00  6.350899271454E+00  6.499612470843E+00  6.650051130515E+00
  6.802102869941E+00  6.955644949853E+00  7.110543916573E+00  7.266655263273E+00
  7.423823111711E+00  7.581879918257E+00  7.740646208275E+00  7.899930343123E+00
  8.059528324320E+00  8.219223639574E+00  8.378787155633E+00  8.537977063028E+00
  8.696538877997E+00  8.854205506920E+00  9.010697378750E+00  9.165722650904E+00
  9.318977494098E+00  9.470146461535E+00  9.618902947706E+00  9.764909741894E+00
  9.907819681167E+00  1.004727640729E+01  1.018291523157E+01  1.031436411101E+01
  1.044124473863E+01  1.056317374999E+01  1.067976404701E+01  1.079062623942E+01
  1.089537020280E+01  1.099360675132E+01  1.108494942161E+01  1.116901636303E+01
  1.124543232804E+01  1.131383075471E+01  1.137385593185E+01  1.142516523529E+01
  1.146743142241E+01  1.150034496983E+01  1.152361643775E+01  1.153697884245E+01
  1.154019001675E+01  1.153303493703E+01  1.151532799339E+01  1.148691517886E+01
  1.144767617205E+01  1.139752628729E+01  1.133641826546E+01  1.126434387891E+01
  1.118133532382E+01  1.108746637432E+01  1.098285327356E+01  1.086765533859E+01
  1.074207525798E+01  1.060635906360E+01  1.046079576096E+01  1.030571660614E+01
  1.014149402102E+01  9.968540143032E+00  9.787305010153E+00  9.598274386950E+00
  9.401967242348E+00  9.198932895239E+00  8.989747849098E+00  8.775012341901E+00
  8.555346642453E+00  8.331387128722E+00  8.103782187723E+00  7.873187979899E+00
  7.640264113564E+00  7.405669276857E+00  7.170056875598E+00  6.934070725468E+00
  6.698340846039E+00  6.463479402313E+00  6.230076836710E+00  5.998698230948E+00
  5.769879933130E+00  5.544126480993E+00  5.321907847462E+00  5.103657029315E+00
  4.889767994637E+00  4.680593787741E+00  4.476444109005E+00  4.277582839920E+00
  4.084227720116E+00  3.896551415290E+00  3.714682358343E+00  3.538707318898E+00
  3.368678283923E+00  3.204621772124E+00  3.046541535636E+00  2.894419124248E+00
  2.748216073903E+00  2.607875487979E+00  2.473323695506E+00  2.344471867040E+00
  2.221217591032E+00  2.103446403118E+00  1.991033261993E+00  1.883843966497E+00
  1.781736509403E+00  1.684562364261E+00  1.592167702438E+00  1.504394538261E+00
  1.421081800890E+00  1.342066332200E+00  1.267183810554E+00  1.196269600912E+00
  1.129159532229E+00  1.065690603531E+00  1.005701620468E+00  9.490337644870E-01
  8.955310970674E-01  8.450410017154E-01  7.974145666173E-01  7.525069110205E-01
  7.101774585351E-01  6.702901606318E-01  6.327136736707E-01  5.973214928094E-01
  5.639920461565E-01  5.326087523576E-01  5.030600450986E-01  4.752393674538E-01
  4.490451392644E-01  4.243807004782E-01  4.011542332760E-01  3.792786656754E-01
  3.586715591549E-01  3.392549826929E-01  3.209553754601E-01  3.037034002490E-01
  2.874337895657E-01  2.720851861576E-01  2.575999795954E-01  2.439241403819E-01
  2.310070529152E-01  2.188013484967E-01  2.072627394421E-01  1.963498552286E-01
  1.860240814916E-01  1.762494025750E-01  1.669922482315E-01  1.582213449750E-01
  1.499075724948E-01  1.420238254584E-01  1.345448809548E-01  1.274472717585E-01
  1.207091655323E-01  1.143102500313E-01  1.082316243177E-01  1.024556959537E-01
  9.696608409745E-02  9.174752839722E-02  8.678580354533E-02  8.206763933213E-02
  7.758064601859E-02  7.331324482997E-02  6.925460336050E-02  6.539457566922E-02
  6.172364684084E-02  5.823288178140E-02  5.491387801718E-02  5.175872226574E-02
  4.875995055059E-02  4.591051163494E-02  4.320373355550E-02  4.063329304420E-02
  3.819318763315E-02  3.587771024719E-02  3.368142609748E-02  3.159915169958E-02
  2.962593584990E-02  2.775704240492E-02  2.598793471823E-02  2.431426160103E-02
  2.273184468212E-02  2.123666705315E-02  1.982486309435E-02  1.849270938418E-02
  1.723661660429E-02  1.605312235577E-02  1.493888481996E-02  1.389067717041E-02
  1.290538269064E-02  1.197999051975E-02  1.111159196504E-02  1.029737731938E-02
  9.534633122856E-03  8.820739809149E-03  8.153169678726E-03  7.529485142508E-03
  6.947337182052E-03  6.404463974963E-03  5.898689637627E-03  5.427923041248E-03
  4.990156661562E-03  4.583465427373E-03  4.206005538119E-03  3.856013225815E-03
  3.531803441913E-03  3.231768454642E-03  2.954376347152E-03  2.698169411220E-03
  2.461762435273E-03  2.243840888994E-03  2.043159009804E-03  1.858537798985E-03
  1.688862937222E-03  1.533082630789E-03  1.390205400692E-03  1.259297827647E-03
  1.139482266034E-03  1.029934539895E-03  9.298816336442E-04  8.385993896081E-04
  7.554102236963E-04  6.796808696126E-04  6.108201609764E-04  5.482768596436E-04
  4.915375373925E-04  4.401245170139E-04  3.935938777427E-04  3.515335289012E-04
  3.135613546284E-04  2.793234316409E-04  2.484923211320E-04  2.207654351725E-04
  1.958634773276E-04  1.735289566555E-04  1.535247738050E-04  1.356328775659E-04
  1.196529899536E-04  1.054013977133E-04  9.270980799501E-05  8.142426588130E-05
  7.140413141923E-05  6.252111381981E-05  5.465836052375E-05  4.770959888840E-05
  4.157832831734E-05  3.617706072705E-05  3.142660731850E-05  2.725540969241E-05
  2.359891341296E-05  2.039898218474E-05  1.760335086027E-05  1.516511554210E-05
  1.304225908361E-05  1.119721032773E-05  9.596435454150E-06  8.210059834198E-06
  7.011518819628E-06  5.977235918527E-06  5.086326839202E-06  4.320327912135E-06
  3.662947431645E-06  3.099838493171E-06  2.618391939417E-06  2.207548069061E-06
  1.857625805355E-06  1.560168068490E-06  1.307802144858E-06  1.094113897938E-06
  9.135347190456E-07  7.612401711651E-07  6.330593350905E-07  5.253939235991E-07
  4.351462859826E-07  3.596554814625E-07  2.966406554541E-07  2.441510069213E-07
  2.005216878711E-07  1.643350270794E-07  1.343865191917E-07  1.096550672020E-07
  8.927701084818E-08  7.252351554988E-08  5.878093610893E-08  4.753380644293E-08
  3.835014114563E-08  3.086876668125E-08  2.478842958159E-08  1.985845619479E-08
  1.587076342202E-08  1.265304257440E-08  1.006295909956E-08  7.983229582374E-09
  6.317454241662E-09  4.986598247968E-09  3.926028702783E-09  3.083026169457E-09
  2.414700351889E-09  1.886248995081E-09  1.469507443462E-09  1.141743644713E-09
  8.846598283610E-10  6.835677133599E-10  5.267089940731E-10  4.046970998977E-10
  3.100598940194E-10  2.368661388802E-10  1.804212711368E-10  1.370203525708E-10
  1.037480453986E-10  7.831714532552E-11  5.893863323017E-11  4.421741180301E-11
  3.306890818503E-11  2.465257198239E-11  1.831902913553E-11  1.356814875973E-11
  7.257598266778E-12  5.330760376571E-12  3.902091708618E-12  2.846428811330E-12
  2.069092760037E-12  1.498712669313E-12  1.081676382463E-12  7.778545532744E-13
  5.573176837111E-13  3.978246360642E-13  2.829083453667E-13  2.004221148150E-13
  1.414398006922E-13  9.942688001808E-14  6.961807072452E-14  4.855184233912E-14
  3.372362944092E-14  2.332849995889E-14  1.607096730025E-14  1.102499601219E-14
  7.531376203487E-15  5.122803618894E-15  3.469415026250E-15  2.339361975218E-15
  1.570393130720E-15  1.049460317612E-15  6.981470911837E-16  4.623037720851E-16
  3.047077927239E-16  1.998899873312E-16  1.305044481032E-16  8.479329732151E-17
  5.482447828493E-17  3.527270766500E-17  2.258024358400E-17  1.438195382904E-17
  9.113395075945E-18  5.744983976804E-18  3.602605558271E-18  2.247172970409E-18
  1.394185235935E-18  8.602815425243E-19  5.279204680455E-19  3.221628381903E-19
  1.954935181203E-19  1.179532300185E-19  7.075841445872E-20  4.219946921587E-20
  2.501877384543E-20  1.474430534537E-20  8.636755388885E-21  5.028208654904E-21
  2.909244975092E-21  1.672704288574E-21  9.556459565894E-22  5.424758615165E-22
  3.059397602431E-22  0.000000000000E+00  0.000000000000E+00  0.000000000000E+00
  0.000000000000E+00
</data>
</radfunc>
</valence-charge>
<pseudocore-charge matching-radius="0.755189259950"
 number-of-continuous-derivatives="4">
<annotation model-charge-form="Teter function with specified parameters" />
<radfunc>
<data npts="290">
  3.435821163053E+01  3.435535330946E+01  3.434680913573E+01  3.433255554844E+01
  3.431274031057E+01  3.428668913851E+01  3.425349343337E+01  3.421548996860E+01
  3.416830426218E+01  3.411730504603E+01  3.405984132588E+01  3.399740761778E+01
  3.392198827974E+01  3.384326194250E+01  3.376465862941E+01  3.367417112456E+01
  3.357004026044E+01  3.347140263553E+01  3.336059356792E+01  3.323615743124E+01
  3.309647694692E+01  3.297255770098E+01  3.283673225547E+01  3.268791176922E+01
  3.252491938334E+01  3.234648559172E+01  3.215124395241E+01  3.199290386971E+01
  3.182362909590E+01  3.164272912984E+01  3.144947980669E+01  3.124312326698E+01
  3.102286824905E+01  3.078789076654E+01  3.053733524096E+01  3.027031616712E+01
  2.998592039854E+01  2.968321014862E+01  2.947075593848E+01  2.924944802275E+01
  2.901899572655E+01  2.877910676285E+01  2.852948818090E+01  2.826984743114E+01
  2.799989355506E+01  2.771933850844E+01  2.742789862643E+01  2.712529623909E+01
  2.681126144559E+01  2.648553405506E+01  2.614786570170E+01  2.579802214093E+01
  2.543578573250E+01  2.506095811550E+01  2.467336307843E+01  2.427284962621E+01
  2.385929524330E+01  2.343260935019E+01  2.299273694697E+01  2.253966243469E+01
  2.207341360090E+01  2.159406575155E+01  2.110174596589E+01  2.059663744577E+01
  2.007898392397E+01  1.954909408941E+01  1.900734597953E+01  1.873216323201E+01
  1.845419128180E+01  1.817349877777E+01  1.789015947787E+01  1.760425236454E+01
  1.731586175461E+01  1.702507740261E+01  1.673199459699E+01  1.643671424826E+01
  1.613934296817E+01  1.583999313914E+01  1.553878297287E+01  1.523583655730E+01
  1.493128389080E+01  1.462526090265E+01  1.431790945874E+01  1.400937735140E+01
  1.369981827235E+01  1.338939176755E+01  1.307826317300E+01  1.276660353029E+01
  1.245458948091E+01  1.214240313802E+01  1.183023193501E+01  1.151826844938E+01
  1.120671020137E+01  1.089575942606E+01  1.058562281837E+01  1.027651124989E+01
  9.968639457068E+00  9.662225699972E+00  9.357491391195E+00  9.054660694526E+00
  8.753960093138E+00  8.455617927214E+00  8.159863901109E+00  7.866928560315E+00
  7.577042738724E+00  7.290436976875E+00  7.007340912126E+00  6.727982641925E+00
  6.452588061638E+00  6.181380178637E+00  5.914578404672E+00  5.652397828840E+00
  5.395048473759E+00  5.142734537898E+00  4.895653627309E+00  4.653995980361E+00
  4.417943689365E+00  4.187669923325E+00  3.963338156357E+00  3.745101406594E+00
  3.533101490712E+00  3.327468299450E+00  3.128319099723E+00  2.935757869169E+00
  2.749874669082E+00  2.570745061839E+00  2.398429579002E+00  2.232973246261E+00
  2.074405171365E+00  1.922738201077E+00  1.777968652974E+00  1.640076127685E+00
  1.509023406782E+00  1.384756441138E+00  1.267204434016E+00  1.156280022562E+00
  1.051879560652E+00  9.538835052777E-01  8.621569077325E-01  7.765500099274E-01
  6.968989450953E-01  6.230265410333E-01  5.547432228514E-01  4.918480109642E-01
  4.341296087987E-01  3.813675734092E-01  3.333335609055E-01  2.897926373403E-01
  2.505046444807E-01  2.152256087417E-01  1.837091804962E-01  1.557080900419E-01
  1.309756057100E-01  1.092669789805E-01  9.034086104677E-02  7.396067506906E-02
  5.989592840051E-02  4.792344937080E-02  3.782853379247E-02  2.940598721863E-02
  2.246105013343E-02  1.681019469514E-02  1.228178336584E-02  8.716581734217E-03
  5.968120042553E-03  3.902900331929E-03  2.400448679243E-03  1.353214665030E-03
  6.663229262031E-04  2.571843490301E-04  5.497707729044E-05  9.977607232167E-09
  4.298344645787E-05  1.441643905211E-04  2.724937968180E-04  4.046464709747E-04
  5.240632095373E-04  6.199758461869E-04  6.864452470696E-04  7.214314191164E-04
  7.259134476436E-04  7.030750259003E-04  6.575689300091E-04  5.948709982348E-04
  5.207310824789E-04  4.407251572481E-04  3.599094147104E-04  2.825738698538E-04
  2.120898763500E-04  1.508431379165E-04  1.002414091033E-04  6.078421530504E-05
  3.218066454161E-05  1.350082600884E-05  3.346233777410E-06  2.582483725953E-08
  1.724989727518E-06  6.657317282087E-06  1.319093715123E-05  1.994396351038E-05
  2.584626150033E-05  3.016742680946E-05  3.251332325265E-05  3.279561205441E-05
  3.118030385379E-05  2.802237954387E-05  2.379391146121E-05  1.901287280474E-05
  1.417900049371E-05  9.721771404062E-06  5.963899747554E-06  3.101928111404E-06
  1.203644011399E-06  2.203828066596E-07  1.093203635520E-08  3.728519122229E-07
  1.076643928469E-06  1.898350026511E-06  2.646805403065E-06  3.182801261658E-06
  3.428698222398E-06  3.368398142032E-06  3.038856510469E-06  2.515339680761E-06
  1.893277812118E-06  1.269765816029E-06  7.275144783797E-07  3.234107044438E-07
  8.292447136934E-08  5.550769706867E-10  0.000000000000E+00  0.000000000000E+00
  0.000000000000E+00  0.000000000000E+00  0.000000000000E+00  0.000000000000E+00
  0.000000000000E+00  0.000000000000E+00  0.000000000000E+00  0.000000000000E+00
  0.000000000000E+00  0.000000000000E+00  0.000000000000E+00  0.000000000000E+00
  0.000000000000E+00  0.000000000000E+00  0.000000000000E+00  0.000000000000E+00
  0.000000000000E+00  0.000000000000E+00  0.000000000000E+00  0.000000000000E+00
  0.000000000000E+00  0.000000000000E+00  0.000000000000E+00  0.000000000000E+00
  0.000000000000E+00  0.000000000000E+00  0.000000000000E+00  0.000000000000E+00
  0.000000000000E+00  0.000000000000E+00  0.000000000000E+00  0.000000000000E+00
  0.000000000000E+00  0.000000000000E+00  0.000000000000E+00  0.000000000000E+00
  0.000000000000E+00  0.000000000000E+00  0.000000000000E+00  0.000000000000E+00
  0.000000000000E+00  0.000000000000E+00  0.000000000000E+00  0.000000000000E+00
  0.000000000000E+00  0.000000000000E+00  0.000000000000E+00  0.000000000000E+00
  0.000000000000E+00  0.000000000000E+00  0.000000000000E+00  0.000000000000E+00
  0.000000000000E+00  0.000000000000E+00  0.000000000000E+00  0.000000000000E+00
  0.000000000000E+00  0.000000000000E+00
</data>
</radfunc>
</pseudocore-charge>
<semilocal-potentials set="scalar_relativistic">
<slps n="4" l="s" rc="1.45540543585" eref="-2.36306393774">
<radfunc>
<data npts="290">
  8.133884027616E+01  8.125246433717E+01  8.099507656388E+01  8.056838665025E+01
  7.998072925982E+01  7.921775153419E+01  7.826102143356E+01  7.718649246906E+01
  7.588222871092E+01  7.450847258162E+01  7.300351159158E+01  7.141772986240E+01
  6.956734750442E+01  6.770797136143E+01  6.592095245414E+01  6.394472653539E+01
  6.177113143262E+01  5.980501581790E+01  5.769667145336E+01  5.544673491778E+01
  5.305808125496E+01  5.105078164008E+01  4.896200460656E+01  4.679678874578E+01
  4.456127579283E+01  4.226268174332E+01  3.990923670712E+01  3.811363131829E+01
  3.629646712430E+01  3.446212610989E+01  3.261516985542E+01  3.076029661893E+01
  2.890229562877E+01  2.704599954553E+01  2.519623612099E+01  2.335778011372E+01
  2.153530651391E+01  1.973334608482E+01  1.854558995847E+01  1.737012057388E+01
  1.620812341684E+01  1.506073158874E+01  1.392902234315E+01  1.281401411657E+01
  1.171666406580E+01  1.063786611794E+01  9.578449532572E+00  8.539177969909E+00
  7.520749053094E+00  6.523794407715E+00  5.548880157247E+00  4.596507849175E+00
  3.667115783281E+00  2.761080710929E+00  1.878719872095E+00  1.020293335413E+00
  1.860066055598E-01 -6.239865382033E-01 -1.409581008508E+00 -2.170717217239E+00
 -2.907377758952E+00 -3.619584004594E+00 -4.307392638570E+00 -4.970892170809E+00
 -5.610199453854E+00 -6.225456233186E+00 -6.816825756866E+00 -7.103608876504E+00
 -7.384489468197E+00 -7.659492529755E+00 -7.928643802296E+00 -8.191969677034E+00
 -8.449497104278E+00 -8.701253504725E+00 -8.947266683086E+00 -9.187564744095E+00
 -9.422176010906E+00 -9.651128945882E+00 -9.874452073768E+00 -1.009217390720E+01
 -1.030432287452E+01 -1.051092724987E+01 -1.071201508541E+01 -1.090761414574E+01
 -1.109775184436E+01 -1.128245518213E+01 -1.146175068775E+01 -1.163566436020E+01
 -1.180422161311E+01 -1.196744722124E+01 -1.212536526892E+01 -1.227799910080E+01
 -1.242537127493E+01 -1.256750351839E+01 -1.270441668576E+01 -1.283613072072E+01
 -1.296266462102E+01 -1.308403640737E+01 -1.320026309642E+01 -1.331136067847E+01
 -1.341734410016E+01 -1.351822725275E+01 -1.361402296623E+01 -1.370474300998E+01
 -1.379039810014E+01 -1.387099791434E+01 -1.394655111413E+01 -1.401706537555E+01
 -1.408254742829E+01 -1.414300310392E+01 -1.419843739366E+01 -1.424885451602E+01
 -1.429425799511E+01 -1.433465074981E+01 -1.437003519458E+01 -1.440041335225E+01
 -1.442578697942E+01 -1.444615770489E+01 -1.446152718157E+01 -1.447189725212E+01
 -1.447727012873E+01 -1.447764858704E+01 -1.447303617426E+01 -1.446343743144E+01
 -1.444885812959E+01 -1.442930551943E+01 -1.440478859440E+01 -1.437531836658E+01
 -1.434090815527E+01 -1.430157388803E+01 -1.425733441452E+01 -1.420821183314E+01
 -1.415423183176E+01 -1.409542404344E+01 -1.403182241919E+01 -1.396346562014E+01
 -1.389039743210E+01 -1.381266720628E+01 -1.373033033036E+01 -1.364344873483E+01
 -1.355209143997E+01 -1.345633514915E+01 -1.335626489480E+01 -1.325197474321E+01
 -1.314356856468E+01 -1.303116087542E+01 -1.291487775731E+01 -1.279485786120E+01
 -1.267125349882E+01 -1.254423182735E+01 -1.241397612933E+01 -1.228068718899E+01