<?xml version="1.0" encoding="UTF-8" ?>
<psml version="1.1" energy_unit="hartree" length_unit="bohr"
 uuid="cc41f260-1d60-11e8-7fdb-364e77bd87d6"
 xmlns="http://esl.cecam.org/PSML/ns/1.1">
<provenance creator="ONCVPSP-3.3.0+psml-3.3.0-73 (scalar-relativistic)"
 date="2018-03-01">
<annotation action="semilocal-pseudopotential-generation"
 action-cont="projectors-generation" />
<input-file name="oncvpsp-input">
<![CDATA[# atsym z nc nv iexc psfile
Ir 77 10 4 -116133 upf
# n l f
1 0 2.0
2 0 2.0
2 1 6.0
3 0 2.0
3 1 6.0
3 2 10.0
4 0 2.0
4 1 6.0
4 2 10.0
4 3 14.0
5 0 2.0
5 1 6.0
5 2 7.0
6 0 2.0
# lmax
3
# l rc ep ncon nbas qcut
0 1.6 0.0 4 8 8.1
1 1.6 0.0 4 8 8.1
2 1.5 0.0 4 8 8.4
3 2.25 0.5 4 8 6.8
# lloc lpopt rc5 dvloc0
4 5 1.5 0.0
# l nproj debl
0 2 1.2
1 2 2.5
2 2 1.0
3 2 3.0
# icmod fcfact rcfact
3 5.0 1.37
# epsh1 epsh2 depsh
-14.0 12.0 0.02
# rlmax drl
5.0 0.01
 0
]]>
</input-file>
</provenance>
<pseudo-atom-spec atomic-label="Ir" atomic-number="77" z-pseudo="17"
 flavor="Hamann&apos;s oncvpsp" relativity="scalar" spin-dft="no"
 core-corrections="yes">
<annotation pseudo-energy="-106.197940168" />
<exchange-correlation>
<annotation oncvpsp-xc-code="-116133" oncvpsp-xc-type="libxc-interface" />
<libxc-info number-of-functionals="2">
<functional name="Perdew, Burke &amp; Ernzerhof SOL (GGA)" type="exchange"
 id="116" />
<functional name="Perdew, Burke &amp; Ernzerhof SOL (GGA)" type="correlation"
 id="133" />
</libxc-info>
</exchange-correlation>
<valence-configuration total-valence-charge="17">
<shell n="5" l="s" occupation="2" />
<shell n="5" l="p" occupation="6" />
<shell n="5" l="d" occupation="7" />
<shell n="6" l="s" occupation="2" />
</valence-configuration>
</pseudo-atom-spec>
<grid npts="457">
<annotation type="sampled from oncvpsp log grid"
 recipe="r(i:1..N) = r1*exp(a*(i-1)) + r=0; resampled"
 recipe-cont="r1: scale; a: step" scale="0.649350649351E-05"
 step="0.119285708653E-01" delta="0.500000000000E-02" rmax="44.2155744394" />
<grid-data>
  0.000000000000E+00  5.048998669752E-03  1.008497861164E-02  1.512907607261E-02
  2.014395333605E-02  2.526820806223E-02  3.058177187380E-02  3.571159986911E-02
  4.071879753945E-02  4.587753439355E-02  5.107691777807E-02  5.619126148361E-02
  6.181770561879E-02  6.720111355653E-02  7.305333671047E-02  7.847351971603E-02
  8.429585250881E-02  8.947645508006E-02  9.497544393250E-02  1.008123862541E-01
  1.070080517809E-01  1.122376350817E-01  1.177227929962E-01  1.234760156942E-01
  1.295104037517E-01  1.358396979821E-01  1.424783107250E-01  1.476693267439E-01
  1.530494708284E-01  1.586256336191E-01  1.644049568082E-01  1.703948422864E-01
  1.766029616229E-01  1.830372658906E-01  1.897059958500E-01  1.966176925027E-01
  2.037812080314E-01  2.112057171363E-01  2.163050679708E-01  2.215275375319E-01
  2.268760983981E-01  2.323537949178E-01  2.379637449423E-01  2.437091416002E-01
  2.495932551150E-01  2.556194346665E-01  2.617911102971E-01  2.681117948641E-01
  2.745850860393E-01  2.812146683566E-01  2.880043153094E-01  2.949578914983E-01
  3.020793548306E-01  3.093727587736E-01  3.168422546615E-01  3.244920940580E-01
  3.323266311769E-01  3.403503253601E-01  3.485677436156E-01  3.569835632174E-01
  3.656025743677E-01  3.744296829233E-01  3.834699131878E-01  3.927284107718E-01
  4.022104455215E-01  4.119214145181E-01  4.218668451502E-01  4.269292472921E-01
  4.320523982596E-01  4.372370270387E-01  4.424838713631E-01  4.477936778195E-01
  4.531672019533E-01  4.586052083768E-01  4.641084708773E-01  4.696777725278E-01
  4.753139057981E-01  4.810176726677E-01  4.867898847397E-01  4.926313633566E-01
  4.985429397169E-01  5.045254549935E-01  5.105797604534E-01  5.167067175789E-01
  5.229071981898E-01  5.291820845681E-01  5.355322695829E-01  5.419586568179E-01
  5.484621606997E-01  5.550437066281E-01  5.617042311076E-01  5.684446818809E-01
  5.752660180635E-01  5.821692102803E-01  5.891552408036E-01  5.962251036933E-01
  6.033798049376E-01  6.106203625968E-01  6.179478069480E-01  6.253631806314E-01
  6.328675387990E-01  6.404619492646E-01  6.481474926557E-01  6.559252625676E-01
  6.637963657184E-01  6.717619221070E-01  6.798230651723E-01  6.879809419544E-01
  6.962367132578E-01  7.045915538169E-01  7.130466524627E-01  7.216032122923E-01
  7.302624508398E-01  7.390256002499E-01  7.478939074529E-01  7.568686343423E-01
  7.659510579544E-01  7.751424706499E-01  7.844441802977E-01  7.938575104612E-01
  8.033838005868E-01  8.130244061938E-01  8.227806990681E-01  8.326540674569E-01
  8.426459162664E-01  8.527576672616E-01  8.629907592688E-01  8.733466483800E-01
  8.838268081606E-01  8.944327298585E-01  9.051659226168E-01  9.160279136882E-01
  9.270202486524E-01  9.381444916363E-01  9.494022255359E-01  9.607950522423E-01
  9.723245928692E-01  9.839924879837E-01  9.958003978395E-01  1.007750002614E+00
  1.019843002645E+00  1.032081118677E+00  1.044466092101E+00  1.056999685206E+00
  1.069683681428E+00  1.082519885606E+00  1.095510124233E+00  1.108656245724E+00
  1.121960120672E+00  1.135423642120E+00  1.149048725826E+00  1.162837310536E+00
  1.176791358262E+00  1.190912854561E+00  1.205203808816E+00  1.219666254522E+00
  1.234302249576E+00  1.249113876571E+00  1.264103243090E+00  1.279272482007E+00
  1.294623751791E+00  1.310159236813E+00  1.325881147654E+00  1.341791721426E+00
  1.357893222083E+00  1.374187940748E+00  1.390678196037E+00  1.407366334390E+00
  1.424254730402E+00  1.441345787167E+00  1.458641936613E+00  1.476145639853E+00
  1.493859387531E+00  1.511785700181E+00  1.529927128583E+00  1.548286254126E+00
  1.566865689176E+00  1.585668077446E+00  1.604696094375E+00  1.623952447508E+00
  1.643439876878E+00  1.663161155400E+00  1.683119089265E+00  1.703316518336E+00
  1.723756316556E+00  1.744441392355E+00  1.765374689063E+00  1.786559185332E+00
  1.807997895556E+00  1.829693870303E+00  1.851650196746E+00  1.873869999107E+00
  1.896356439097E+00  1.919112716366E+00  1.942142068962E+00  1.965447773790E+00
  1.989033147075E+00  2.012901544840E+00  2.037056363378E+00  2.061501039739E+00
  2.086239052216E+00  2.111273920842E+00  2.136609207892E+00  2.162248518387E+00
  2.188195500608E+00  2.214453846615E+00  2.241027292774E+00  2.267919620288E+00
  2.295134655731E+00  2.322676271600E+00  2.350548386859E+00  2.378754967501E+00
  2.407300027111E+00  2.436187627437E+00  2.465421878966E+00  2.495006941514E+00
  2.524947024812E+00  2.555246389110E+00  2.585909345779E+00  2.616940257928E+00
  2.648343541023E+00  2.680123663516E+00  2.712285147478E+00  2.744832569248E+00
  2.777770560079E+00  2.811103806799E+00  2.844837052481E+00  2.878975097111E+00
  2.913522798276E+00  2.948485071855E+00  2.983866892718E+00  3.019673295430E+00
  3.055909374976E+00  3.092580287475E+00  3.129691250925E+00  3.167247545936E+00
  3.205254516487E+00  3.243717570685E+00  3.282642181533E+00  3.322033887712E+00
  3.361898294364E+00  3.402241073897E+00  3.443067966783E+00  3.484384782385E+00
  3.526197399773E+00  3.568511768571E+00  3.611333909794E+00  3.654669916711E+00
  3.698525955712E+00  3.742908267180E+00  3.787823166386E+00  3.833277044383E+00
  3.879276368916E+00  3.925827685342E+00  3.972937617567E+00  4.020612868977E+00
  4.068860223405E+00  4.117686546086E+00  4.167098784639E+00  4.217103970055E+00
  4.267709217695E+00  4.318921728308E+00  4.370748789047E+00  4.423197774516E+00
  4.476276147810E+00  4.529991461584E+00  4.584351359123E+00  4.639363575432E+00
  4.695035938338E+00  4.751376369598E+00  4.808392886033E+00  4.866093600665E+00
  4.924486723873E+00  4.983580564560E+00  5.043383531334E+00  5.103904133710E+00
  5.165150983315E+00  5.227132795115E+00  5.289858388656E+00  5.353336689320E+00
  5.417576729592E+00  5.482587650347E+00  5.548378702151E+00  5.614959246577E+00
  5.682338757536E+00  5.750526822626E+00  5.819533144498E+00  5.889367542232E+00
  5.960039952738E+00  6.031560432171E+00  6.103939157357E+00  6.177186427246E+00
  6.251312664373E+00  6.326328416345E+00  6.402244357341E+00  6.479071289629E+00
  6.556820145105E+00  6.635501986846E+00  6.715128010688E+00  6.795709546817E+00
  6.877258061378E+00  6.959785158115E+00  7.043302580012E+00  7.127822210972E+00
  7.213356077504E+00  7.299916350434E+00  7.387515346639E+00  7.476165530799E+00
  7.565879517169E+00  7.656670071375E+00  7.748550112231E+00  7.841532713578E+00
  7.935631106141E+00  8.030858679414E+00  8.127228983567E+00  8.224755731370E+00
  8.323452800147E+00  8.423334233748E+00  8.524414244553E+00  8.626707215488E+00
  8.730227702074E+00  8.834990434499E+00  8.941010319713E+00  9.048302443549E+00
  9.156882072872E+00  9.266764657746E+00  9.377965833639E+00  9.490501423643E+00
  9.604387440727E+00  9.719640090015E+00  9.836275771096E+00  9.954311080349E+00
  1.007376281331E+01  1.019464796707E+01  1.031698374268E+01  1.044078754759E+01
  1.056607699816E+01  1.069286992214E+01  1.082118436120E+01  1.095103857354E+01
  1.108245103642E+01  1.121544044886E+01  1.135002573424E+01  1.148622604306E+01
  1.162406075557E+01  1.176354948464E+01  1.190471207845E+01  1.204756862340E+01
  1.219213944688E+01  1.233844512024E+01  1.248650646168E+01  1.263634453922E+01
  1.278798067369E+01  1.294143644178E+01  1.309673367908E+01  1.325389448323E+01
  1.341294121703E+01  1.357389651163E+01  1.373678326977E+01  1.390162466901E+01
  1.406844416504E+01  1.423726549502E+01  1.440811268096E+01  1.458101003313E+01
  1.475598215353E+01  1.493305393937E+01  1.511225058664E+01  1.529359759368E+01
  1.547712076480E+01  1.566284621398E+01  1.585080036855E+01  1.604100997297E+01
  1.623350209265E+01  1.642830411776E+01  1.662544376717E+01  1.682494909238E+01
  1.702684848149E+01  1.723117066327E+01  1.743794471122E+01  1.764720004776E+01
  1.785896644833E+01  1.807327404571E+01  1.829015333426E+01  1.850963517427E+01
  1.873175079636E+01  1.895653180592E+01  1.918401018759E+01  1.941421830984E+01
  1.964718892956E+01  1.988295519671E+01  2.012155065907E+01  2.036300926698E+01
  2.060736537819E+01  2.085465376273E+01  2.110490960788E+01  2.135816852317E+01
  2.161446654545E+01  2.187384014400E+01  2.213632622572E+01  2.240196214043E+01
  2.267078568612E+01  2.294283511435E+01  2.321814913572E+01  2.349676692535E+01
  2.377872812846E+01  2.406407286600E+01  2.435284174039E+01  2.464507584128E+01
  2.494081675137E+01  2.524010655239E+01  2.554298783102E+01  2.584950368499E+01
  2.615969772921E+01  2.647361410196E+01  2.679129747118E+01  2.711279304084E+01
  2.743814655733E+01  2.776740431601E+01  2.810061316781E+01  2.843782052582E+01
  2.877907437213E+01  2.912442326459E+01  2.947391634377E+01  2.982760333990E+01
  3.018553457997E+01  3.054776099493E+01  3.091433412687E+01  3.128530613640E+01
  3.166072981003E+01  3.204065856775E+01  3.242514647057E+01  3.281424822821E+01
  3.320801920695E+01  3.360651543743E+01  3.400979362268E+01  3.441791114616E+01
  3.483092607991E+01  3.524889719287E+01  3.567188395918E+01  3.609994656669E+01
  3.653314592549E+01  3.697154367660E+01  3.741520220072E+01  3.786418462713E+01
  3.831855484265E+01  3.877837750076E+01  3.924371803077E+01  3.971464264714E+01
  4.019121835891E+01  4.067351297922E+01  4.116159513497E+01  4.165553427659E+01
  4.215540068790E+01  4.266126549616E+01  4.317320068211E+01  4.369127909030E+01
  4.421557443938E+01
</grid-data>
</grid>
<valence-charge total-charge="17" is-unscreening-charge="yes"
 rescaled-to-z-pseudo="no">
<radfunc>
<data npts="457">
  2.896400855460E+00  2.897586268002E+00  2.901130056190E+00  2.907042986871E+00
  2.915265393907E+00  2.926079481343E+00  2.939866005527E+00  2.955658418890E+00
  2.973422489526E+00  2.994147798297E+00  3.017521113507E+00  3.042941083475E+00
  3.073683021767E+00  3.105813573002E+00  3.143747221362E+00  3.181663971390E+00
  3.225365628987E+00  3.266828826832E+00  3.313485913171E+00  3.365978334184E+00
  3.425024070334E+00  3.477515469890E+00  3.535166836256E+00  3.598473518377E+00
  3.667975625203E+00  3.744261380163E+00  3.827970541858E+00  3.896039780298E+00
  3.968988732500E+00  4.047151079507E+00  4.130880432072E+00  4.220550968990E+00
  4.316557974257E+00  4.419318239402E+00  4.529270290334E+00  4.646874389968E+00
  4.772612258367E+00  4.906986441177E+00  5.001624341996E+00  5.100491691815E+00
  5.203751139326E+00  5.311568314295E+00  5.424111414320E+00  5.541550710506E+00
  5.664057962050E+00  5.791805728801E+00  5.924966569863E+00  6.063712115269E+00
  6.208211996715E+00  6.358632622243E+00  6.515135778716E+00  6.677877044867E+00
  6.847003996721E+00  7.022654186315E+00  7.204952873860E+00  7.394010492988E+00
  7.589919828384E+00  7.792752885231E+00  8.002557430346E+00  8.219353185988E+00
  8.443127659030E+00  8.673831590782E+00  8.911374016307E+00  9.155616926828E+00
  9.406369534973E+00  9.663382150342E+00  9.926339682521E+00  1.005992976679E+01
  1.019485480034E+01  1.033105390731E+01  1.046846079029E+01  1.060700349507E+01
  1.074660417358E+01  1.088717884569E+01  1.102863716103E+01  1.117088216169E+01
  1.131381004709E+01  1.145730994217E+01  1.160126367040E+01  1.174554553307E+01
  1.189002209658E+01  1.203455198944E+01  1.217898571110E+01  1.232316545443E+01
  1.246692494444E+01  1.261008929533E+01  1.275247488861E+01  1.289388927492E+01
  1.303413110237E+01  1.317299007453E+01  1.331024694099E+01  1.344567352392E+01
  1.357903278390E+01  1.371007892856E+01  1.383855756747E+01  1.396420591701E+01
  1.408675305871E+01  1.420592025490E+01  1.432142132498E+01  1.443296308616E+01
  1.454024586186E+01  1.464296406109E+01  1.474080683187E+01  1.483345879141E+01
  1.492060083552E+01  1.500191102917E+01  1.507706557991E+01  1.514573989494E+01
  1.520760972241E+01  1.526235237647E+01  1.530964804503E+01  1.534918117823E+01
  1.538064195474E+01  1.540372782198E+01  1.541814510520E+01  1.542361067938E+01
  1.541985369652E+01  1.540661735992E+01  1.538366073545E+01  1.535076058892E+01
  1.530771323708E+01  1.525433639879E+01  1.519047103160E+01  1.511598313793E+01
  1.503076552400E+01  1.493473949402E+01  1.482785646098E+01  1.471009945554E+01
  1.458148451366E+01  1.444206192376E+01  1.429191731469E+01  1.413117256570E+01
  1.395998652107E+01  1.377855549267E+01  1.358711353533E+01  1.338593248172E+01
  1.317532172522E+01  1.295562774172E+01  1.272723334385E+01  1.249055666352E+01
  1.224604986214E+01  1.199419757010E+01  1.173551506087E+01  1.147054616737E+01
  1.119986095177E+01  1.092405314211E+01  1.064373735205E+01  1.035954610218E+01
  1.007212666319E+01  9.782137743094E+00  9.490246041755E+00  9.197122697087E+00
  8.903439647854E+00  8.609865938429E+00  8.317063991033E+00  8.025685870991E+00
  7.736369570566E+00  7.449735336941E+00  7.166382070064E+00  6.886883816437E+00
  6.611786385510E+00  6.341604116188E+00  6.076816822110E+00  5.817866945619E+00
  5.565156951820E+00  5.319046995424E+00  5.079852894247E+00  4.847844443922E+00
  4.623244108353E+00  4.406226119560E+00  4.196916018486E+00  3.995390664992E+00
  3.801678740420E+00  3.615761759848E+00  3.437576166620E+00  3.267018261814E+00
  3.103950916727E+00  2.948207477492E+00  2.799594570386E+00  2.657896828040E+00
  2.522884859738E+00  2.394324886550E+00  2.271980302002E+00  2.155613238836E+00
  2.044985881783E+00  1.939861683786E+00  1.840006446181E+00  1.745189275671E+00
  1.655183422838E+00  1.569767008186E+00  1.488723642020E+00  1.411842944650E+00
  1.338920973601E+00  1.269760564524E+00  1.204171592551E+00  1.141971160790E+00
  1.082983722158E+00  1.027041141668E+00  9.739827045550E-01  9.236550765981E-01
  8.759122221982E-01  8.306152856145E-01  7.876324404335E-01  7.468387120386E-01
  7.081157775283E-01  6.713517472030E-01  6.364409314190E-01  6.032835962856E-01
  5.717857113648E-01  5.418586922287E-01  5.134191404305E-01  4.863885831619E-01
  4.606932145966E-01  4.362636406639E-01  4.130346287524E-01  3.909448636211E-01
  3.699367105798E-01  3.499559868105E-01  3.309517415223E-01  3.128760454684E-01
  2.956837902096E-01  2.793324973737E-01  2.637821380465E-01  2.489949623212E-01
  2.349353389477E-01  2.215696049404E-01  2.088659249371E-01  1.967941600471E-01
  1.853257458757E-01  1.744335793775E-01  1.640919141611E-01  1.542762638424E-01
  1.449633130322E-01  1.361308355321E-01  1.277576193065E-01  1.198233978031E-01
  1.123087871954E-01  1.051952291299E-01  9.846493857317E-02  9.210085636474E-02
  8.608660610254E-02  8.040645500123E-02  7.504527838589E-02  6.998852750327E-02
  6.522220035374E-02  6.073281526886E-02  5.650738697451E-02  5.253340493850E-02
  4.879881372458E-02  4.529199522281E-02  4.200175254685E-02  3.891729544166E-02
  3.602822705226E-02  3.332453191487E-02  3.079656504093E-02  2.843504197130E-02
  2.623102968328E-02  2.417593823748E-02  2.226151305455E-02  2.047982771512E-02
  1.882327717935E-02  1.728457132624E-02  1.585672871772E-02  1.453307049836E-02
  1.330721434860E-02  1.217306841807E-02  1.112482517478E-02  1.015695511695E-02
  9.264200304665E-03  8.441567680570E-03  7.684322159572E-03  6.987979478719E-03
  6.348298808469E-03  5.761275135793E-03  5.223131437651E-03  4.730310670179E-03
  4.279467604366E-03  3.867460543139E-03  3.491342957564E-03  3.148355081449E-03
  2.835915504055E-03  2.551612800095E-03  2.293197234745E-03  2.058572579289E-03
  1.845788070275E-03  1.653030541961E-03  1.478616758331E-03  1.320985967386E-03
  1.178692696675E-03  1.050399805364E-03  9.348718045593E-04  8.309684542143E-04
  7.376386417229E-04  6.539145444942E-04  5.789060761125E-04  5.117956134200E-04
  4.518330000682E-04  3.983308202990E-04  3.506599354489E-04  3.082452747907E-04
  2.705618715300E-04  2.371311342952E-04  2.075173442122E-04  1.813243675646E-04
  1.581925740844E-04  1.377959510840E-04  1.198394038793E-04  1.040562332478E-04
  9.020578099780E-05  7.807123506418E-05  6.745758589387E-05  5.818972622014E-05
  5.011068664624E-05  4.307999976280E-05  3.697218580615E-05  3.167535312893E-05
  2.708990700018E-05  2.312736048249E-05  1.970924135219E-05  1.676608923700E-05
  1.423653734801E-05  1.206647338086E-05  1.020827435789E-05  8.620110379463E-06
  7.265312450774E-06  6.111799750239E-06  5.131561908180E-06  4.300192068975E-06
  3.596466716527E-06  3.001968450778E-06  2.500748111243E-06  2.079022851340E-06
  1.724906973420E-06  1.428172537936E-06  1.180036959977E-06  9.729750014956E-07
  8.005527570413E-07  6.572814138071E-07  5.384887427205E-07  4.402064454285E-07
  3.590716419931E-07  2.922409355287E-07  2.373156326768E-07  1.922768326041E-07
  1.554292221234E-07  1.253525306501E-07  1.008597061771E-07  8.096097251832E-08
  6.483301900634E-08  5.179265698686E-08  4.127435318374E-08  3.281111872694E-08
  2.601829474858E-08  2.057983139143E-08  1.623670726899E-08  1.277718129488E-08
  1.002860878324E-08  7.850589220448E-09  6.129244514294E-09  4.772454218305E-09
  3.705898560228E-09  2.869781411320E-09  2.216123929419E-09  1.706535784448E-09
  1.310384898068E-09  1.003298745575E-09  7.659407022311E-10  5.830138716379E-10
  4.424524945804E-10  3.347675682357E-10  2.525188557036E-10  1.898901661767E-10
  1.423487534636E-10  1.063730180490E-10  7.923549595644E-11  5.883045558791E-11
  4.353737047481E-11  3.211315136669E-11  2.360735706159E-11  1.729570436782E-11
  1.262810174856E-11  9.188171110649E-12  6.661825549208E-12  4.812961099428E-12
  3.464717423513E-12  2.485082680409E-12  1.775874275647E-12  1.224631413825E-12
  8.692551204228E-13  6.146462910954E-13  4.329319243336E-13  3.037457707884E-13
  2.122642421113E-13  1.477402556209E-13  1.024130825129E-13  7.070099630458E-14
  4.860576576727E-14  3.327519408319E-14  2.268308294170E-14  1.539607771291E-14
  1.040452408755E-14  7.000285664682E-15  4.688865235080E-15  3.126474776443E-15
  2.075170381893E-15  1.371009353709E-15  9.015520085912E-16  5.900386389794E-16
  3.843126786885E-16  2.491027700289E-16  1.606706960388E-16  1.031177547664E-16
  6.584805441871E-17  4.183491872142E-17  2.644203240477E-17  1.662584685079E-17
  1.039868803409E-17  6.469215481811E-18  4.002903397863E-18  2.463319921761E-18
  1.507509990239E-18  9.174118721245E-19  5.551419528517E-19  3.340024729807E-19
  1.997888762315E-19  1.188060615947E-19  7.022971190979E-20  4.126550025475E-20
  2.409937907057E-20  1.398766724555E-20  8.068136441424E-21  4.624418019003E-21
  2.633685096788E-21  1.490253335045E-21  8.377452951897E-22  4.678269149886E-22
  2.595044341235E-22  1.429736260495E-22  0.000000000000E+00  0.000000000000E+00
  0.000000000000E+00  0.000000000000E+00  0.000000000000E+00  0.000000000000E+00
  0.000000000000E+00  0.000000000000E+00  0.000000000000E+00  0.000000000000E+00
  0.000000000000E+00  0.000000000000E+00  0.000000000000E+00  0.000000000000E+00
  0.000000000000E+00  0.000000000000E+00  0.000000000000E+00  0.000000000000E+00
  0.000000000000E+00
</data>
</radfunc>
</valence-charge>
<pseudocore-charge matching-radius="0.842645916266"
 number-of-continuous-derivatives="4">
<annotation model-charge-form="Teter function with specified parameters" />
<radfunc>
<data npts="275">
  7.958611828782E+01  7.958130857933E+01  7.956693065210E+01  7.954294302348E+01
  7.950959134976E+01  7.946573626249E+01  7.940984154685E+01  7.934583451409E+01
  7.927386192272E+01  7.918992573984E+01  7.909530911897E+01  7.899245990359E+01
  7.886815038733E+01  7.873830980803E+01  7.858512819047E+01  7.843213204874E+01
  7.825593723482E+01  7.808890798886E+01  7.790111746122E+01  7.769004205023E+01
  7.745286671773E+01  7.724223870897E+01  7.701114005230E+01  7.675764932911E+01
  7.647967906225E+01  7.617496441423E+01  7.584105180501E+01  7.556986771423E+01
  7.527957458576E+01  7.496890633434E+01  7.463652535555E+01  7.428102045225E+01
  7.390090505430E+01  7.349461581080E+01  7.306051164593E+01  7.259687338311E+01
  7.210190405692E+01  7.157373004816E+01  7.120220791908E+01  7.081446876749E+01
  7.040990405333E+01  6.998789240336E+01  6.954780045454E+01  6.908898385388E+01
  6.861078842954E+01  6.811255154868E+01  6.759360367857E+01  6.705327016795E+01
  6.649087326660E+01  6.590573440165E+01  6.529717672957E+01  6.466452798338E+01
  6.400712363482E+01  6.332431039108E+01  6.261545004583E+01  6.187992370341E+01
  6.111713639462E+01  6.032652210090E+01  5.950754920241E+01  5.865972636280E+01
  5.778260886118E+01  5.687580537771E+01  5.593898523522E+01  5.497188609403E+01
  5.397432209089E+01  5.294619240579E+01  5.188749023207E+01  5.134670033308E+01
  5.079831211553E+01  5.024235538200E+01  4.967886761761E+01  4.910789430551E+01
  4.852948924490E+01  4.794371487070E+01  4.735064257428E+01  4.675035302435E+01
  4.614293648703E+01  4.552849314425E+01  4.490713340932E+01  4.427897823860E+01
  4.364415943804E+01  4.300281996328E+01  4.235511421196E+01  4.170120830678E+01
  4.104128036767E+01  4.037552077163E+01  3.970413239834E+01  3.902733085975E+01
  3.834534471190E+01  3.765841564682E+01  3.696679866255E+01  3.627076220916E+01
  3.557058830845E+01  3.486657264519E+01  3.415902462744E+01  3.344826741363E+01
  3.273463790387E+01  3.201848669310E+01  3.130017798346E+01  3.058008945342E+01
  2.985861208103E+01  2.913614991890E+01  2.841311981824E+01  2.768995109965E+01
  2.696708516815E+01  2.624497507015E+01  2.552408499024E+01  2.480488968559E+01
  2.408787385617E+01  2.337353144897E+01  2.266236489476E+01  2.195488427603E+01
  2.125160642528E+01  2.055305395282E+01  1.985975420382E+01  1.917223814467E+01
  1.849103917907E+01  1.781669189482E+01  1.714973074274E+01  1.649068864953E+01
  1.584009556729E+01  1.519847696257E+01  1.456635224890E+01  1.394423316697E+01
  1.333262211774E+01  1.273201045412E+01  1.214287673779E+01  1.156568496838E+01
  1.100088279309E+01  1.044889970542E+01  9.910145242479E+00  9.385007191270E+00
  8.873849814660E+00  8.377012108795E+00  7.894806104113E+00  7.427515222767E+00
  6.975392705746E+00  6.538660123408E+00  6.117505983445E+00  5.712084450525E+00
  5.322514191943E+00  4.948877363557E+00  4.591218750089E+00  4.249545073521E+00
  3.923824482745E+00  3.613986236954E+00  3.319920594279E+00  3.041478916104E+00
  2.778473996125E+00  2.530680621685E+00  2.297836373166E+00  2.079642665233E+00
  1.875766031574E+00  1.685839652431E+00  1.509465121659E+00  1.346214447402E+00
  1.195632277652E+00  1.057238339055E+00  9.305300743733E-01  8.149854610332E-01
  7.100659902437E-01  6.152197832901E-01  5.298848188861E-01  4.534922429149E-01
  3.854697296009E-01  3.252448611766E-01  2.722484915046E-01  2.259180579462E-01
  1.857008050942E-01  1.510568838521E-01  1.214622898023E-01  9.641160588954E-02
  7.542051618216E-02  5.802805988104E-02  4.379859781431E-02  3.232346737932E-02
  2.322230622978E-02  1.614402990817E-02  1.076745401795E-02  6.801557327817E-03
  3.985388292056E-03  2.087623731174E-03  9.057947052569E-04  2.652007746185E-04
  1.753971715067E-05  3.928519245675E-05  2.298496437789E-04  5.095737504415E-04
  8.175868390590E-04  1.109584702907E-03  1.355572162656E-03  1.537617356438E-03
  1.647663138218E-03  1.685438097258E-03  1.656505639840E-03  1.570484395436E-03
  1.439467068192E-03  1.276657939900E-03  1.095241771799E-03  9.074891111913E-04
  7.240952707509E-04  5.537428111866E-04  4.028705188292E-04  2.756259105195E-04
  1.739734708468E-04  9.792733841803E-05  4.587515732975E-05  1.495937658457E-05
  1.483415061454E-06  1.312731653060E-06  1.024478612976E-05  2.432690647026E-05
  4.010688752536E-05  5.480737920558E-05  6.642139641035E-05  7.373220964559E-05
  7.626608849661E-05  7.419055192553E-05  6.817368477709E-05  5.922155744194E-05
  4.851079178061E-05  3.723192189182E-05  2.645658527410E-05  1.703802921673E-05
  9.550286115931E-06  4.267062999013E-06  1.177317476244E-06  3.103751175635E-08
  4.062208208215E-07  1.786675558943E-06  3.640126915856E-06  5.487168192946E-06
  6.953661766521E-06  7.801983875293E-06  7.939646654924E-06  7.406915385138E-06
  6.347678173442E-06  4.969695077219E-06  3.501239557818E-06  2.150972692555E-06
  1.076736615763E-06  3.670362189216E-07  3.662463556698E-08  0.000000000000E+00
  0.000000000000E+00  0.000000000000E+00  0.000000000000E+00  0.000000000000E+00
  0.000000000000E+00  0.000000000000E+00  0.000000000000E+00  0.000000000000E+00
  0.000000000000E+00  0.000000000000E+00  0.000000000000E+00  0.000000000000E+00
  0.000000000000E+00  0.000000000000E+00  0.000000000000E+00  0.000000000000E+00
  0.000000000000E+00  0.000000000000E+00  0.000000000000E+00  0.000000000000E+00
  0.000000000000E+00  0.000000000000E+00  0.000000000000E+00  0.000000000000E+00
  0.000000000000E+00  0.000000000000E+00  0.000000000000E+00  0.000000000000E+00
  0.000000000000E+00  0.000000000000E+00  0.000000000000E+00
</data>
</radfunc>
</pseudocore-charge>
<semilocal-potentials set="scalar_relativistic">
<slps n="5" l="s" rc="1.60469609438" eref="-3.60283042403">
<radfunc>
<data npts="275">
 -9.987343914882E+00 -9.988749442584E+00 -9.992949869288E+00 -9.999953805443E+00
 -1.000968375840E+01 -1.002246362015E+01 -1.003872839553E+01 -1.005732139517E+01
 -1.007818707353E+01 -1.010246621338E+01 -1.012976406693E+01 -1.015935243793E+01
 -1.019499740185E+01 -1.023209194523E+01 -1.027567653716E+01 -1.031901671248E+01
 -1.036869263597E+01 -1.041555271173E+01 -1.046796977647E+01 -1.052655045619E+01
 -1.059195400716E+01 -1.064966653790E+01 -1.071259053708E+01 -1.078113710002E+01
 -1.085573783785E+01 -1.093684337751E+01 -1.102492118876E+01 -1.109584424353E+01
 -1.117116672646E+01 -1.125109766562E+01 -1.133584680434E+01 -1.142562304030E+01
 -1.152063262459E+01 -1.162107710472E+01 -1.172715099683E+01 -1.183903917467E+01
 -1.195691396630E+01 -1.208093195303E+01 -1.216709222147E+01 -1.225607947816E+01
 -1.234792381485E+01 -1.244264969260E+01 -1.254027536493E+01 -1.264081228028E+01
 -1.274426446567E+01 -1.285062789407E+01 -1.295988983803E+01 -1.307202821271E+01
 -1.318701091163E+01 -1.330479513888E+01 -1.342532674187E+01 -1.354853954871E+01
 -1.367435471492E+01 -1.380268008405E+01 -1.393340956699E+01 -1.406642254494E+01
 -1.420158330075E+01 -1.433874048349E+01 -1.447772661084E+01 -1.461835761355E+01
 -1.476043242604E+01 -1.490373262670E+01 -1.504802213103E+01 -1.519304694007E+01
 -1.533853494619E+01 -1.548419579747E+01 -1.562972082129E+01 -1.570233092277E+01
 -1.577478300737E+01 -1.584703334038E+01 -1.591903704935E+01 -1.599074812851E+01
 -1.606211944408E+01 -1.613310274040E+01 -1.620364864690E+01 -1.627370668590E+01
 -1.634322528114E+01 -1.641215176721E+01 -1.648043239964E+01 -1.654801236583E+01
 -1.661483579665E+01 -1.668084577883E+01 -1.674598436807E+01 -1.681019260292E+01
 -1.687341051931E+01 -1.693557716589E+01 -1.699663062018E+01 -1.705650800540E+01
 -1.711514550818E+01 -1.717247839715E+01 -1.722844104234E+01 -1.728296693569E+01
 -1.733598871241E+01 -1.738743817360E+01 -1.743724631000E+01 -1.748534332706E+01
 -1.753165867142E+01 -1.757612105897E+01 -1.761865850462E+01 -1.765919835392E+01
 -1.769766731671E+01 -1.773399150311E+01 -1.776809646183E+01 -1.779990722133E+01
 -1.782934833379E+01 -1.785634392237E+01 -1.788081773196E+01 -1.790269318372E+01
 -1.792189343378E+01 -1.793834143638E+01 -1.795196001190E+01 -1.796267192003E+01
 -1.797039993870E+01 -1.797506694888E+01 -1.797659602598E+01 -1.797491053814E+01
 -1.796993425193E+01 -1.796159144593E+01 -1.794980703270E+01 -1.793450668976E+01
 -1.791561699994E+01 -1.789306560183E+01 -1.786678135088E+01 -1.783669449167E+01
 -1.780273684209E+01 -1.776484198998E+01 -1.772294550299E+01 -1.767698515223E+01
 -1.762690115054E+01 -1.757263640595E+01 -1.751413679117E+01 -1.745135142978E+01
 -1.738423299984E+01 -1.731273805557E+01 -1.723682736783E+01 -1.715646628395E+01
 -1.707162510749E+01 -1.698227949826E+01 -1.688841089306E+01 -1.679000694719E+01
 -1.668706199684E+01 -1.657957754205E+01 -1.646756274996E+01 -1.635103497775E+01
 -1.623002031436E+01 -1.610455414028E+01 -1.597468170411E+01 -1.584045871503E+01
 -1.570195195022E+01 -1.555923987668E+01 -1.541241328758E+01 -1.526157595414E+01
 -1.510684529565E+01 -1.494835307208E+01 -1.478624610643E+01 -1.462068704765E+01
 -1.445185518908E+01 -1.427994736313E+01 -1.410517893935E+01 -1.392778496125E+01
 -1.374802146616E+01 -1.356616704332E+01 -1.338252469693E+01 -1.319742409387E+01