<?xml version="1.0" encoding="UTF-8" ?>
<psml version="1.1" energy_unit="hartree" length_unit="bohr"
 uuid="8c5b0d80-1d65-11e8-582f-95ad5ff77eea"
 xmlns="http://esl.cecam.org/PSML/ns/1.1">
<provenance creator="ONCVPSP-3.3.0+psml-3.3.0-73 (scalar-relativistic)"
 date="2018-03-01">
<annotation action="semilocal-pseudopotential-generation"
 action-cont="projectors-generation" />
<input-file name="oncvpsp-input">
<![CDATA[# atsym z nc nv iexc psfile
Se 34 3 5 -116133 upf
# n l f
1 0 2.0
2 0 2.0
2 1 6.0
3 0 2.0
3 1 6.0
3 2 10.0
4 0 2.0
4 1 4.0
# lmax
2
# l rc ep ncon nbas qcut
0 1.2 0.0 4 7 9.6
1 1.4 0.0 4 7 10.0
2 1.6 0.0 4 7 10.0
# lloc lpopt rc5 dvloc0
4 5 1.2 0.0
# l nproj debl
0 2 1.0
1 2 1.0
2 2 3.5
# icmod fcfact rcfact
3 2.6 1.5
# epsh1 epsh2 depsh
-12.0 12.0 0.02
# rlmax drl
6.0 0.01
 0
]]>
</input-file>
</provenance>
<pseudo-atom-spec atomic-label="Se" atomic-number="34" z-pseudo="24"
 flavor="Hamann&apos;s oncvpsp" relativity="scalar" spin-dft="no"
 core-corrections="yes">
<annotation pseudo-energy="-335.527668585" />
<exchange-correlation>
<annotation oncvpsp-xc-code="-116133" oncvpsp-xc-type="libxc-interface" />
<libxc-info number-of-functionals="2">
<functional name="Perdew, Burke &amp; Ernzerhof SOL (GGA)" type="exchange"
 id="116" />
<functional name="Perdew, Burke &amp; Ernzerhof SOL (GGA)" type="correlation"
 id="133" />
</libxc-info>
</exchange-correlation>
<valence-configuration total-valence-charge="24">
<shell n="3" l="s" occupation="2" />
<shell n="3" l="p" occupation="6" />
<shell n="3" l="d" occupation="10" />
<shell n="4" l="s" occupation="2" />
<shell n="4" l="p" occupation="4" />
</valence-configuration>
</pseudo-atom-spec>
<grid npts="457">
<annotation type="sampled from oncvpsp log grid"
 recipe="r(i:1..N) = r1*exp(a*(i-1)) + r=0; resampled"
 recipe-cont="r1: scale; a: step" scale="0.147058823529E-04"
 step="0.119285708653E-01" delta="0.500000000000E-02" rmax="43.9674944076" />
<grid-data>
  0.000000000000E+00  5.020670286226E-03  1.002839488868E-02  1.504419146530E-02
  2.027130297145E-02  2.542795312469E-02  3.077510917124E-02  3.593736782770E-02
  4.097622089294E-02  4.616757116937E-02  5.139982494270E-02  5.654650141804E-02
  6.220851581082E-02  6.762595753660E-02  7.264345683615E-02  7.803322885668E-02
  8.382289432527E-02  8.897443012385E-02  9.444256583582E-02  1.002467588636E-01
  1.064076624107E-01  1.116079041230E-01  1.170622864982E-01  1.227832296276E-01
  1.287837605838E-01  1.350775430848E-01  1.416789086070E-01  1.468407994265E-01
  1.521907571722E-01  1.577356338231E-01  1.634825310017E-01  1.694388090690E-01
  1.756120965512E-01  1.820102999105E-01  1.886416136706E-01  1.955145309126E-01
  2.026378541519E-01  2.100207066126E-01  2.150914465530E-01  2.202846144386E-01
  2.256031661696E-01  2.310501290136E-01  2.366286033285E-01  2.423417643273E-01
  2.481928638852E-01  2.541852323908E-01  2.603222806417E-01  2.666075017855E-01
  2.730444733086E-01  2.796368590722E-01  2.863884113976E-01  2.933029732024E-01
  3.003844801874E-01  3.076369630770E-01  3.150645499135E-01  3.226714684067E-01
  3.304620483399E-01  3.384407240350E-01  3.466120368761E-01  3.549806378944E-01
  3.635512904158E-01  3.723288727715E-01  3.813183810757E-01  3.905249320684E-01
  3.999537660283E-01  4.096102497553E-01  4.194998796254E-01  4.245338781809E-01
  4.296282847191E-01  4.347838241357E-01  4.400012300253E-01  4.452812447856E-01
  4.506246197230E-01  4.560321151597E-01  4.615045005416E-01  4.670425545481E-01
  4.726470652027E-01  4.783188299851E-01  4.840586559450E-01  4.898673598163E-01
  4.957457681341E-01  5.016947173517E-01  5.077150539599E-01  5.138076346074E-01
  5.199733262227E-01  5.262130061374E-01  5.325275622111E-01  5.389178929576E-01
  5.453849076731E-01  5.519295265652E-01  5.585526808839E-01  5.652553130546E-01
  5.720383768112E-01  5.789028373329E-01  5.858496713809E-01  5.928798674375E-01
  5.999944258468E-01  6.071943589569E-01  6.144806912644E-01  6.218544595596E-01
  6.293167130743E-01  6.368685136312E-01  6.445109357948E-01  6.522450670243E-01
  6.600720078286E-01  6.679928719225E-01  6.760087863856E-01  6.841208918222E-01
  6.923303425241E-01  7.006383066344E-01  7.090459663140E-01  7.175545179098E-01
  7.261651721247E-01  7.348791541902E-01  7.436977040405E-01  7.526220764889E-01
  7.616535414068E-01  7.707933839037E-01  7.800429045105E-01  7.894034193647E-01
  7.988762603970E-01  8.084627755218E-01  8.181643288281E-01  8.279823007740E-01
  8.379180883833E-01  8.479731054439E-01  8.581487827092E-01  8.684465681017E-01
  8.788679269189E-01  8.894143420420E-01  9.000873141465E-01  9.108883619162E-01
  9.218190222592E-01  9.328808505263E-01  9.440754207327E-01  9.554043257814E-01
  9.668691776908E-01  9.784716078231E-01  9.902132671170E-01  1.002095826322E+00
  1.014120976238E+00  1.026290427953E+00  1.038605913089E+00  1.051069184046E+00
  1.063682014254E+00  1.076446198425E+00  1.089363552806E+00  1.102435915440E+00
  1.115665146425E+00  1.129053128182E+00  1.142601765721E+00  1.156312986909E+00
  1.170188742752E+00  1.184231007665E+00  1.198441779757E+00  1.212823081114E+00
  1.227376958088E+00  1.242105481585E+00  1.257010747364E+00  1.272094876332E+00
  1.287360014848E+00  1.302808335026E+00  1.318442035046E+00  1.334263339467E+00
  1.350274499541E+00  1.366477793535E+00  1.382875527058E+00  1.399470033382E+00
  1.416263673783E+00  1.433258837868E+00  1.450457943923E+00  1.467863439250E+00
  1.485477800521E+00  1.503303534127E+00  1.521343176537E+00  1.539599294655E+00
  1.558074486191E+00  1.576771380025E+00  1.595692636585E+00  1.614840948224E+00
  1.634219039603E+00  1.653829668078E+00  1.673675624095E+00  1.693759731584E+00
  1.714084848363E+00  1.734653866544E+00  1.755469712942E+00  1.776535349498E+00
  1.797853773692E+00  1.819428018976E+00  1.841261155204E+00  1.863356289066E+00
  1.885716564535E+00  1.908345163309E+00  1.931245305269E+00  1.954420248932E+00
  1.977873291919E+00  2.001607771422E+00  2.025627064680E+00  2.049934589456E+00
  2.074533804529E+00  2.099428210183E+00  2.124621348706E+00  2.150116804890E+00
  2.175918206549E+00  2.202029225027E+00  2.228453575728E+00  2.255195018636E+00
  2.282257358860E+00  2.309644447166E+00  2.337360180532E+00  2.365408502699E+00
  2.393793404731E+00  2.422518925588E+00  2.451589152695E+00  2.481008222527E+00
  2.510780321198E+00  2.540909685052E+00  2.571400601273E+00  2.602257408488E+00
  2.633484497390E+00  2.665086311359E+00  2.697067347095E+00  2.729432155260E+00
  2.762185341123E+00  2.795331565217E+00  2.828875543999E+00  2.862822050527E+00
  2.897175915133E+00  2.931942026115E+00  2.967125330428E+00  3.002730834394E+00
  3.038763604406E+00  3.075228767659E+00  3.112131512871E+00  3.149477091026E+00
  3.187270816118E+00  3.225518065911E+00  3.264224282702E+00  3.303394974095E+00
  3.343035713784E+00  3.383152142349E+00  3.423749968057E+00  3.464834967674E+00
  3.506412987286E+00  3.548489943134E+00  3.591071822451E+00  3.634164684321E+00
  3.677774660532E+00  3.721907956459E+00  3.766570851936E+00  3.811769702160E+00
  3.857510938585E+00  3.903801069848E+00  3.950646682687E+00  3.998054442879E+00
  4.046031096193E+00  4.094583469348E+00  4.143718470980E+00  4.193443092632E+00
  4.243764409743E+00  4.294689582660E+00  4.346225857652E+00  4.398380567944E+00
  4.451161134759E+00  4.504575068376E+00  4.558629969197E+00  4.613333528827E+00
  4.668693531173E+00  4.724717853547E+00  4.781414467790E+00  4.838791441403E+00
  4.896856938700E+00  4.955619221965E+00  5.015086652628E+00  5.075267692460E+00
  5.136170904769E+00  5.197804955626E+00  5.260178615094E+00  5.323300758475E+00
  5.387180367577E+00  5.451826531988E+00  5.517248450372E+00  5.583455431776E+00
  5.650456896957E+00  5.718262379721E+00  5.786881528277E+00  5.856324106617E+00
  5.926599995896E+00  5.997719195847E+00  6.069691826197E+00  6.142528128111E+00
  6.216238465649E+00  6.290833327237E+00  6.366323327163E+00  6.442719207089E+00
  6.520031837574E+00  6.598272219625E+00  6.677451486261E+00  6.757580904096E+00
  6.838671874945E+00  6.920735937445E+00  7.003784768694E+00  7.087830185918E+00
  7.172884148149E+00  7.258958757927E+00  7.346066263022E+00  7.434219058178E+00
  7.523429686877E+00  7.613710843119E+00  7.705075373236E+00  7.797536277715E+00
  7.891106713048E+00  7.985799993604E+00  8.081629593528E+00  8.178609148650E+00
  8.276752458434E+00  8.376073487935E+00  8.476586369790E+00  8.578305406228E+00
  8.681245071102E+00  8.785420011956E+00  8.890845052099E+00  8.997535192724E+00
  9.105505615037E+00  9.214771682418E+00  9.325348942607E+00  9.437253129918E+00
  9.550500167477E+00  9.665106169487E+00  9.781087443520E+00  9.898460492843E+00
  1.001724201876E+01  1.013744892298E+01  1.025909831006E+01  1.038220748978E+01
  1.050679397966E+01  1.063287550741E+01  1.076047001350E+01  1.088959565366E+01
  1.102027080151E+01  1.115251405112E+01  1.128634421974E+01  1.142178035037E+01
  1.155884171458E+01  1.169754781515E+01  1.183791838894E+01  1.197997340960E+01
  1.212373309052E+01  1.226921788760E+01  1.241644850226E+01  1.256544588428E+01
  1.271623123489E+01  1.286882600971E+01  1.302325192183E+01  1.317953094489E+01
  1.333768531623E+01  1.349773754003E+01  1.365971039051E+01  1.382362691519E+01
  1.398951043817E+01  1.415738456343E+01  1.432727317819E+01  1.449920045633E+01
  1.467319086181E+01  1.484926915215E+01  1.502746038197E+01  1.520778990656E+01
  1.539028338544E+01  1.557496678606E+01  1.576186638750E+01  1.595100878415E+01
  1.614242088956E+01  1.633612994023E+01  1.653216349951E+01  1.673054946151E+01
  1.693131605504E+01  1.713449184771E+01  1.734010574988E+01  1.754818701888E+01
  1.775876526310E+01  1.797187044626E+01  1.818753289162E+01  1.840578328631E+01
  1.862665268575E+01  1.885017251798E+01  1.907637458820E+01  1.930529108325E+01
  1.953695457625E+01  1.977139803117E+01  2.000865480754E+01  2.024875866523E+01
  2.049174376921E+01  2.073764469445E+01  2.098649643078E+01  2.123833438795E+01
  2.149319440060E+01  2.175111273341E+01  2.201212608621E+01  2.227627159925E+01
  2.254358685844E+01  2.281410990074E+01  2.308787921955E+01  2.336493377018E+01
  2.364531297542E+01  2.392905673113E+01  2.421620541190E+01  2.450679987685E+01
  2.480088147537E+01  2.509849205307E+01  2.539967395771E+01  2.570447004520E+01
  2.601292368574E+01  2.632507876997E+01  2.664097971521E+01  2.696067147179E+01
  2.728419952946E+01  2.761160992381E+01  2.794294924290E+01  2.827826463381E+01
  2.861760380942E+01  2.896101505513E+01  2.930854723579E+01  2.966024980262E+01
  3.001617280025E+01  3.037636687385E+01  3.074088327634E+01  3.110977387566E+01
  3.148309116216E+01  3.186088825611E+01  3.224321891518E+01  3.263013754217E+01
  3.302169919267E+01  3.341795958298E+01  3.381897509798E+01  3.422480279916E+01
  3.463550043275E+01  3.505112643794E+01  3.547173995519E+01  3.589740083466E+01
  3.632816964467E+01  3.676410768041E+01  3.720527697257E+01  3.765174029624E+01
  3.810356117980E+01  3.856080391396E+01  3.902353356092E+01  3.949181596366E+01
  3.996571775522E+01  4.044530636828E+01  4.093065004470E+01  4.142181784524E+01
  4.191887965938E+01  4.242190621529E+01  4.293096908988E+01  4.344614071895E+01
  4.396749440758E+01
</grid-data>
</grid>
<valence-charge total-charge="24" is-unscreening-charge="yes"
 rescaled-to-z-pseudo="no">
<radfunc>
<data npts="457">
  4.903988872869E+01  4.905377711603E+01  4.909528416857E+01  4.916449940507E+01
  4.926598687876E+01  4.939535145275E+01  4.956001412192E+01  4.974827662206E+01
  4.995958665697E+01  5.020551063523E+01  5.048206619758E+01  5.078188844745E+01
  5.114316068517E+01  5.151920616887E+01  5.189356983747E+01  5.232317268021E+01
  5.281573443665E+01  5.328050856682E+01  5.380052591889E+01  5.438181488426E+01
  5.503091072560E+01  5.560372219282E+01  5.622825448831E+01  5.690852151523E+01
  5.764870115622E+01  5.845310415828E+01  5.932613080556E+01  6.002860173299E+01
  6.077402405181E+01  6.156421823349E+01  6.240094104239E+01  6.328585320005E+01
  6.422048117819E+01  6.520617235209E+01  6.624404268879E+01  6.733491609588E+01
  6.847925452181E+01  6.967707788366E+01  7.050511214836E+01  7.135639786761E+01
  7.223049006840E+01  7.312678727197E+01  7.404451421346E+01  7.498270336919E+01
  7.594017529192E+01  7.691551777322E+01  7.790706387453E+01  7.891286889661E+01
  7.993068638913E+01  8.095794334171E+01  8.199171474244E+01  8.302869774268E+01
  8.406518572737E+01  8.509704265797E+01  8.611967813306E+01  8.712802369662E+01
  8.811651101928E+01  8.907905268009E+01  9.000902638719E+01  9.089926359162E+01
  9.174204356940E+01  9.252909416809E+01  9.325160053333E+01  9.390022324207E+01
  9.446512736660E+01  9.493602407014E+01  9.530222638043E+01  9.544263586445E+01
  9.555272079290E+01  9.563106806035E+01  9.567625630697E+01  9.568685975732E+01
  9.566145238453E+01  9.559861240707E+01  9.549692712409E+01  9.535499809302E+01
  9.517144665159E+01  9.494491978352E+01  9.467409632517E+01  9.435769350691E+01
  9.399447382023E+01  9.358325219798E+01  9.312290349123E+01  9.261237022227E+01
  9.205067058888E+01  9.143690669034E+01  9.077027294055E+01  9.005006462881E+01
  8.927568658310E+01  8.844666188540E+01  8.756264058281E+01  8.662340833252E+01
  8.562889491305E+01  8.457918252845E+01  8.347451382660E+01  8.231529954771E+01
  8.110212571400E+01  7.983576026734E+01  7.851715905755E+01  7.714747108122E+01
  7.572804286844E+01  7.426042191363E+01  7.274635904653E+01  7.118780964058E+01
  6.958693355847E+01  6.794609373874E+01  6.626785333319E+01  6.455497131254E+01
  6.281039646726E+01  6.103725974191E+01  5.923886485533E+01  5.741867717401E+01
  5.558031082426E+01  5.372751404808E+01  5.186415282912E+01  4.999419283873E+01
  4.812167977631E+01  4.625071820450E+01  4.438544900645E+01  4.253002561954E+01
  4.068858922774E+01  3.886524312110E+01  3.706402645702E+01  3.528888768205E+01
  3.354365789477E+01  3.183202444911E+01  3.015750511275E+01  2.852342310622E+01
  2.693288335394E+01  2.538875027917E+01  2.389362746902E+01  2.244983952332E+01
  2.105941638279E+01  1.972408040553E+01  1.844523642888E+01  1.722396501378E+01
  1.606101902402E+01  1.495682364127E+01  1.391147986122E+01  1.292477145725E+01
  1.199617533594E+01  1.112487514672E+01  1.030977794606E+01  9.549533657475E+00
  8.842557013503E+00  8.187051616731E+00  7.581035715575E+00  7.022369257980E+00
  6.508781764344E+00  6.037900550313E+00  5.607278831497E+00  5.214423255763E+00
  4.856820434289E+00  4.531962079332E+00  4.237368403483E+00  3.970609490301E+00
  3.729324528871E+00  3.511239033339E+00  3.314179526081E+00  3.136084697578E+00
  2.975013982823E+00  2.829153575413E+00  2.696820073646E+00  2.576461926410E+00
  2.466658904678E+00  2.366119841092E+00  2.273678894096E+00  2.188290595524E+00
  2.109023933830E+00  2.035055374390E+00  1.965660149206E+00  1.900203118216E+00
  1.838132188861E+00  1.778972666999E+00  1.722320857571E+00  1.667838036436E+00
  1.615244473824E+00  1.564313567816E+00  1.514866077489E+00  1.466764449539E+00
  1.419905968003E+00  1.374211330568E+00  1.329612581488E+00  1.286050551289E+00
  1.243475449403E+00  1.201845178693E+00  1.161124585072E+00  1.121284633991E+00
  1.082301655910E+00  1.044156646783E+00  1.006834622118E+00  9.703240220937E-01
  9.346161660376E-01  8.997047541290E-01  8.655854142285E-01  8.322552916932E-01
  7.997126800223E-01  7.679566901730E-01  7.369869563839E-01  7.068033763737E-01
  6.774058837257E-01  6.487942504885E-01  6.209679178024E-01  5.939258526018E-01
  5.676664284160E-01  5.421873283554E-01  5.174854684370E-01  4.935569394764E-01
  4.703969657669E-01  4.479998790342E-01  4.263591059708E-01  4.054671679214E-01
  3.853156912970E-01  3.658954273836E-01  3.471962802920E-01  3.292073418760E-01
  3.119169325219E-01  2.953126467951E-01  2.793814029999E-01  2.641094957889E-01
  2.494826510295E-01  2.354860822032E-01  2.221045476860E-01  2.093224083208E-01
  1.971236847563E-01  1.854921140872E-01  1.744112053891E-01  1.638642937827E-01
  1.538345927492E-01  1.443052444127E-01  1.352593675945E-01  1.266801034668E-01
  1.185506586761E-01  1.108543458408E-01  1.035746213621E-01  9.669512051653E-02
  9.019968982439E-02  8.407241671417E-02  7.829765652302E-02  7.286005689225E-02
  6.774457963177E-02  6.293652014084E-02  5.842152448155E-02  5.418560420963E-02
  5.021514907117E-02  4.649693767689E-02  4.301814626562E-02  3.976635566729E-02
  3.672955657286E-02  3.389615321439E-02  3.125496555375E-02  2.879523007307E-02
  2.650659925485E-02  2.437913983452E-02  2.240332990383E-02  2.057005493932E-02
  1.887060282750E-02  1.729665795573E-02  1.584029443693E-02  1.449396853496E-02
  1.325051035824E-02  1.210311488872E-02  1.104533241469E-02  1.007105843588E-02
  9.174523110307E-03  8.350280312325E-03  7.593196371138E-03  6.898438558430E-03
  6.261463392453E-03  5.678004824078E-03  5.144062367893E-03  4.655889238449E-03
  4.209980548289E-03  3.803061620476E-03  3.432076464098E-03  3.094176456716E-03
  2.786709273002E-03  2.507208094030E-03  2.253381126903E-03  2.023101459588E-03
  1.814397271260E-03  1.625442413962E-03  1.454547377189E-03  1.300150643033E-03
  1.160810435873E-03  1.035196867271E-03  9.220844737219E-04  8.203451422865E-04
  7.289414168349E-04  6.469201756854E-04  5.734066698340E-04  5.075989096869E-04
  4.487623872409E-04  3.962251199666E-04  3.493730022165E-04  3.076454497682E-04
  2.705313230997E-04  2.375651151413E-04  2.083233895328E-04  1.824214557966E-04
  1.595102683092E-04  1.392735364639E-04  1.214250339760E-04  1.057060958427E-04
  9.188329204214E-05  7.974626760801E-05  6.910573925909E-05  5.979163927206E-05
  5.165139777564E-05  4.454835509761E-05  3.836029622438E-05  3.297809983318E-05
  2.830449472776E-05  2.425291685762E-05  2.074646043050E-05  1.771691693686E-05
  1.510389619877E-05  1.285402383737E-05  1.092020982279E-05  9.260983030959E-06
  7.839886984890E-06  6.624932203717E-06  5.588100823268E-06  4.704899386390E-06
  3.953955930807E-06  3.316657726542E-06  2.776826233903E-06  2.320426066469E-06
  1.935304951071E-06  1.610961878068E-06  1.338340829880E-06  1.109647663401E-06
  9.181879021076E-07  7.582233662685E-07  6.248457341385E-07  5.138652834213E-07
  4.217132102796E-07  3.453560627905E-07  2.822209569440E-07  2.301303661143E-07
  1.872453895251E-07  1.520165117394E-07  1.231409638487E-07  9.952588808128E-08
  8.025659127227E-08  6.456924938110E-08  5.182749532553E-08  4.150238620549E-08
  3.315530387034E-08  2.642339512156E-08  2.100720501274E-08  1.666019908166E-08
  1.317990829059E-08  1.040046431418E-08  8.186322941855E-09  6.427000079581E-09
  5.032668456085E-09  3.930483953075E-09  3.061528764508E-09  2.378274602435E-09
  1.842483145380E-09  1.423473089658E-09  1.096693716604E-09  8.425540143852E-10
  6.454642598813E-10  4.930537265165E-10  3.755339750291E-10  2.851821293579E-10
  2.159227491846E-10  1.629904822796E-10  1.226587005559E-10  9.202187037479E-11
  6.882154761492E-11  5.130768040212E-11  3.812839872689E-11  2.824271522668E-11
  2.085159393282E-11  1.534369718639E-11  1.125282390433E-11  8.224629471685E-12
  5.990689663114E-12  4.348355913416E-12  3.145161975478E-12  2.266795171941E-12
  1.627849675472E-12  1.164743410618E-12  8.303116416115E-13  5.896952183390E-13
  4.172248546497E-13  2.940688703308E-13  2.064639501978E-13  1.443894437391E-13
  1.005778086905E-13  6.977882307457E-14  4.821462902357E-14  3.317771351701E-14
  2.273552378401E-14  1.551431315304E-14  1.054161483853E-14  7.131918690092E-15
  4.804051642388E-15  3.221722221636E-15  2.150921125295E-15  1.429530373479E-15
  9.457384699574E-16  6.227782727753E-16  4.081842524748E-16  2.662654373582E-16
  1.728558777704E-16  1.116706470303E-16  7.178832378120E-17  4.592006496451E-17
  2.922527856032E-17  1.850526932449E-17  1.165695871130E-17  7.304659043741E-18
  4.553132393032E-18  2.822833702335E-18  0.000000000000E+00  0.000000000000E+00
  0.000000000000E+00  0.000000000000E+00  0.000000000000E+00  0.000000000000E+00
  0.000000000000E+00  0.000000000000E+00  0.000000000000E+00  0.000000000000E+00
  0.000000000000E+00  0.000000000000E+00  0.000000000000E+00  0.000000000000E+00
  0.000000000000E+00  0.000000000000E+00  0.000000000000E+00  0.000000000000E+00
  0.000000000000E+00  0.000000000000E+00  0.000000000000E+00  0.000000000000E+00
  0.000000000000E+00  0.000000000000E+00  0.000000000000E+00  0.000000000000E+00
  0.000000000000E+00  0.000000000000E+00  0.000000000000E+00  0.000000000000E+00
  0.000000000000E+00  0.000000000000E+00  0.000000000000E+00  0.000000000000E+00
  0.000000000000E+00  0.000000000000E+00  0.000000000000E+00  0.000000000000E+00
  0.000000000000E+00
</data>
</radfunc>
</valence-charge>
<pseudocore-charge matching-radius="0.311328606634"
 number-of-continuous-derivatives="4">
<annotation model-charge-form="Teter function with specified parameters" />
<radfunc>
<data npts="291">
  2.334533387340E+02  2.333680987776E+02  2.331134312740E+02  2.326890364348E+02
  2.320673896976E+02  2.312760645578E+02  2.302705678693E+02  2.291233569075E+02
  2.278387428135E+02  2.263477454379E+02  2.246762237084E+02  2.228702732706E+02
  2.207027330179E+02  2.184564601549E+02  2.162302448425E+02  2.136878199970E+02
  2.107889056792E+02  2.080692655368E+02  2.050444221553E+02  2.016856707991E+02
  1.979630901888E+02  1.947024216682E+02  1.911733280567E+02  1.873600207775E+02
  1.832471139581E+02  1.788199768744E+02  1.740651570389E+02  1.702768384604E+02
  1.662933666726E+02  1.621114481134E+02  1.577288290661E+02  1.531444811858E+02
  1.483588006803E+02  1.433738194362E+02  1.381934255313E+02  1.328235895821E+02
  1.272725922072E+02  1.215512465754E+02  1.176489537322E+02  1.136816484223E+02
  1.096546653012E+02  1.055739583315E+02  1.014461145905E+02  9.727836297275E+01
  9.307857690786E+01  8.885527018169E+01  8.461758491676E+01  8.037527076270E+01
  7.613865435979E+01  7.191859817879E+01  6.772644791168E+01  6.357396769629E+01
  5.947326260676E+01  5.543668803786E+01  5.147674585600E+01  4.760596748840E+01
  4.383678447417E+01  4.018138740691E+01  3.665157465515E+01  3.325859274752E+01
  3.001297084452E+01  2.692435227394E+01  2.400132666309E+01  2.125126673479E+01
  1.868017431625E+01  1.629254050754E+01  1.409122523110E+01  1.306086059126E+01
  1.207736149704E+01  1.114058893949E+01  1.025028962806E+01  9.406095913654E+00
  8.607526355577E+00  7.853986957050E+00  7.144773089578E+00  6.479072120775E+00
  5.855966754374E+00  5.274439084474E+00  4.733375359123E+00  4.231571440509E+00
  3.767738941188E+00  3.340512007347E+00  2.948454711512E+00  2.590069008397E+00
  2.263803198890E+00  1.968060838561E+00  1.701210018839E+00  1.461592941152E+00
  1.247535697159E+00  1.057358161818E+00  8.893839006505E-01  7.419499883550E-01
  6.134166330481E-01  5.021764990508E-01  4.066636214314E-01  3.253618075790E-01
  2.568124250249E-01  1.996214806049E-01  1.524659038966E-01  1.140989576431E-01
  8.335470953105E-02  5.915151309800E-02  4.049446052810E-02  2.647678642871E-02
  1.628021907285E-02  9.174293706404E-03  4.514660967210E-03  1.740441816035E-03
  3.706981760563E-04  1.052359798971E-07  2.939266026916E-04  9.824067118278E-04
  1.854705663413E-03  2.752509533502E-03  3.563453872894E-03  4.214499273127E-03
  4.665395389227E-03  4.902363603498E-03  4.932118666121E-03  4.776336362512E-03
  4.466657877376E-03  4.040302529279E-03  3.536339541095E-03  2.992647203843E-03
  2.443564983895E-03  1.918221672585E-03  1.439501460529E-03  1.023590695238E-03
  6.800318468617E-04  4.121985544296E-04  2.180970975413E-04  9.139559453260E-05
  2.258281092998E-05  1.635791135098E-07  1.180714624095E-05  4.537771126625E-05
  8.979219844969E-05  1.356679840399E-04  1.757417625060E-04  2.050588696193E-04
  2.209490498430E-04  2.228188382075E-04  2.118015670700E-04  1.903128907180E-04
  1.615623242205E-04  1.290696228457E-04  9.622922571315E-05  6.595710838779E-05
  4.044315668541E-05  2.101970176495E-05  8.144351852491E-06  1.483908024809E-06
  7.701666567507E-08  2.547105507866E-06  7.334562162317E-06  1.291814894629E-05
  1.800001160426E-05  2.163566770733E-05  2.329909177124E-05  2.288230258061E-05
  2.063751321360E-05  1.707684135018E-05  1.284896098556E-05  8.613434199378E-06
  4.931751811907E-06  2.189733013542E-06  5.596687707294E-07  3.492466231923E-09
  0.000000000000E+00  0.000000000000E+00  0.000000000000E+00  0.000000000000E+00
  0.000000000000E+00  0.000000000000E+00  0.000000000000E+00  0.000000000000E+00
  0.000000000000E+00  0.000000000000E+00  0.000000000000E+00  0.000000000000E+00
  0.000000000000E+00  0.000000000000E+00  0.000000000000E+00  0.000000000000E+00
  0.000000000000E+00  0.000000000000E+00  0.000000000000E+00  0.000000000000E+00
  0.000000000000E+00  0.000000000000E+00  0.000000000000E+00  0.000000000000E+00
  0.000000000000E+00  0.000000000000E+00  0.000000000000E+00  0.000000000000E+00
  0.000000000000E+00  0.000000000000E+00  0.000000000000E+00  0.000000000000E+00
  0.000000000000E+00  0.000000000000E+00  0.000000000000E+00  0.000000000000E+00
  0.000000000000E+00  0.000000000000E+00  0.000000000000E+00  0.000000000000E+00
  0.000000000000E+00  0.000000000000E+00  0.000000000000E+00  0.000000000000E+00
  0.000000000000E+00  0.000000000000E+00  0.000000000000E+00  0.000000000000E+00
  0.000000000000E+00  0.000000000000E+00  0.000000000000E+00  0.000000000000E+00
  0.000000000000E+00  0.000000000000E+00  0.000000000000E+00  0.000000000000E+00
  0.000000000000E+00  0.000000000000E+00  0.000000000000E+00  0.000000000000E+00
  0.000000000000E+00  0.000000000000E+00  0.000000000000E+00  0.000000000000E+00
  0.000000000000E+00  0.000000000000E+00  0.000000000000E+00  0.000000000000E+00
  0.000000000000E+00  0.000000000000E+00  0.000000000000E+00  0.000000000000E+00
  0.000000000000E+00  0.000000000000E+00  0.000000000000E+00  0.000000000000E+00
  0.000000000000E+00  0.000000000000E+00  0.000000000000E+00  0.000000000000E+00
  0.000000000000E+00  0.000000000000E+00  0.000000000000E+00  0.000000000000E+00
  0.000000000000E+00  0.000000000000E+00  0.000000000000E+00  0.000000000000E+00
  0.000000000000E+00  0.000000000000E+00  0.000000000000E+00  0.000000000000E+00
  0.000000000000E+00  0.000000000000E+00  0.000000000000E+00  0.000000000000E+00
  0.000000000000E+00  0.000000000000E+00  0.000000000000E+00  0.000000000000E+00
  0.000000000000E+00  0.000000000000E+00  0.000000000000E+00  0.000000000000E+00
  0.000000000000E+00  0.000000000000E+00  0.000000000000E+00  0.000000000000E+00
  0.000000000000E+00  0.000000000000E+00  0.000000000000E+00  0.000000000000E+00
  0.000000000000E+00  0.000000000000E+00  0.000000000000E+00  0.000000000000E+00
  0.000000000000E+00  0.000000000000E+00  0.000000000000E+00  0.000000000000E+00
  0.000000000000E+00  0.000000000000E+00  0.000000000000E+00
</data>
</radfunc>
</pseudocore-charge>
<semilocal-potentials set="scalar_relativistic">
<slps n="3" l="s" rc="1.21282308111" eref="-7.83092397930">
<radfunc>
<data npts="291">
 -4.500222044216E+01 -4.500189107753E+01 -4.500090651356E+01 -4.499926411205E+01
 -4.499685457072E+01 -4.499378073754E+01 -4.498986405585E+01 -4.498538003229E+01
 -4.498033896575E+01 -4.497446062863E+01 -4.496783425965E+01 -4.496063007194E+01
 -4.495191907023E+01 -4.494281394900E+01 -4.493370818795E+01 -4.492320416587E+01
 -4.491108343430E+01 -4.489956509183E+01 -4.488657713504E+01 -4.487192415868E+01
 -4.485538138571E+01 -4.484061331834E+01 -4.482431845033E+01 -4.480632501154E+01
 -4.478643807885E+01 -4.476443564997E+01 -4.474006395267E+01 -4.472005679190E+01
 -4.469841530932E+01 -4.467498500838E+01 -4.464959353221E+01 -4.462204826868E+01
 -4.459213362741E+01 -4.455960794895E+01 -4.452420000370E+01 -4.448560503641E+01
 -4.444348031290E+01 -4.439744012943E+01 -4.436435916177E+01 -4.432920423403E+01
 -4.429182180270E+01 -4.425204575454E+01 -4.420969645538E+01 -4.416457977292E+01
 -4.411648609086E+01 -4.406518933837E+01 -4.401044606839E+01 -4.395199462894E+01
 -4.388955448426E+01 -4.382282575650E+01 -4.375148907176E+01 -4.367520580471E+01
 -4.359361881947E+01 -4.350635379510E+01 -4.341302119564E+01 -4.331321888940E+01
 -4.320653533554E+01 -4.309255313927E+01 -4.297085264145E+01 -4.284101508224E+01
 -4.270262480365E+01 -4.255526998419E+01 -4.239854157150E+01 -4.223203040063E+01
 -4.205532290516E+01 -4.186799622829E+01 -4.166961377850E+01 -4.156613566945E+01
 -4.145972223594E+01 -4.135031405728E+01 -4.123785068674E+01 -4.112227074686E+01
 -4.100351205117E+01 -4.088151174669E+01 -4.075620647131E+01 -4.062753252111E+01
 -4.049542602362E+01 -4.035982311455E+01 -4.022066011739E+01 -4.007787372638E+01
 -3.993140119542E+01 -3.978118053571E+01 -3.962715072607E+01 -3.946925193933E+01
 -3.930742578793E+01 -3.914161559046E+01 -3.897176665962E+01 -3.879782661000E+01
 -3.861974568242E+01 -3.843747707951E+01 -3.825097730578E+01 -3.806020650418E+01
 -3.786512878063E+01 -3.766571250801E+01 -3.746193060214E+01 -3.725376076329E+01
 -3.704118567948E+01 -3.682419318981E+01 -3.660277640910E+01 -3.637693381762E+01
 -3.614666932255E+01 -3.591199229932E+01 -3.567291762283E+01 -3.542946569909E+01
 -3.518166250762E+01 -3.492953966432E+01 -3.467313451311E+01 -3.441249025262E+01
 -3.414765610196E+01 -3.387868750747E+01 -3.360564638965E+01 -3.332860142737E+01
 -3.304762837436E+01 -3.276281040130E+01 -3.247423845526E+01 -3.218201162694E+01
 -3.188623751551E+01 -3.158703257973E+01 -3.128452246367E+01 -3.097884228474E+01
 -3.067013687141E+01 -3.035856093757E+01 -3.004427918049E+01 -2.972746628912E+01
 -2.940830685018E+01 -2.908699514038E+01 -2.876373479500E+01 -2.843873834637E+01
 -2.811222663087E+01 -2.778442807036E+01 -2.745557784452E+01 -2.712591698421E+01
 -2.679569143410E+01 -2.646515115450E+01 -2.613454935743E+01 -2.580414199966E+01
 -2.547418768275E+01 -2.514494813442E+01 -2.481668946282E+01 -2.448968438177E+01
 -2.416421559661E+01 -2.384058051584E+01 -2.351909741405E+01 -2.320011311950E+01
 -2.288401224410E+01 -2.257122792376E+01 -2.226225400625E+01 -2.195765863056E+01
 -2.165809920654E+01 -2.136433895924E+01 -2.107726548917E+01 -2.079791226264E+01