<?xml version="1.0" encoding="UTF-8" ?>
<psml version="1.1" energy_unit="hartree" length_unit="bohr"
 uuid="f5923ae0-1d5f-11e8-5798-9489dcf6a5a9"
 xmlns="http://esl.cecam.org/PSML/ns/1.1">
<provenance creator="ONCVPSP-3.3.0+psml-3.3.0-73 (scalar-relativistic)"
 date="2018-03-01">
<annotation action="semilocal-pseudopotential-generation"
 action-cont="projectors-generation" />
<input-file name="oncvpsp-input">
<![CDATA[# atsym z nc nv iexc psfile
Se 34 5 3 -116133 upf
# n l f
1 0 2.0
2 0 2.0
2 1 6.0
3 0 2.0
3 1 6.0
3 2 10.0
4 0 2.0
4 1 4.0
# lmax
2
# l rc ep ncon nbas qcut
0 1.8 0.0 4 8 5.4
1 1.5 0.0 4 8 7.8
2 1.9 0.0 4 9 9.2
# lloc lpopt rc5 dvloc0
4 5 1.5 0.0
# l nproj debl
0 2 4.5
1 2 4.5
2 2 2.0
# icmod fcfact
3 5 1.4
# epsh1 epsh2 depsh
-12.0 12.0 0.02
# rlmax drl
6.0 0.01
 0
]]>
</input-file>
</provenance>
<pseudo-atom-spec atomic-label="Se" atomic-number="34" z-pseudo="16"
 flavor="Hamann&apos;s oncvpsp" relativity="scalar" spin-dft="no"
 core-corrections="yes">
<annotation pseudo-energy="-111.258071225" />
<exchange-correlation>
<annotation oncvpsp-xc-code="-116133" oncvpsp-xc-type="libxc-interface" />
<libxc-info number-of-functionals="2">
<functional name="Perdew, Burke &amp; Ernzerhof SOL (GGA)" type="exchange"
 id="116" />
<functional name="Perdew, Burke &amp; Ernzerhof SOL (GGA)" type="correlation"
 id="133" />
</libxc-info>
</exchange-correlation>
<valence-configuration total-valence-charge="16">
<shell n="3" l="d" occupation="10" />
<shell n="4" l="s" occupation="2" />
<shell n="4" l="p" occupation="4" />
</valence-configuration>
</pseudo-atom-spec>
<grid npts="457">
<annotation type="sampled from oncvpsp log grid"
 recipe="r(i:1..N) = r1*exp(a*(i-1)) + r=0; resampled"
 recipe-cont="r1: scale; a: step" scale="0.147058823529E-04"
 step="0.119285708653E-01" delta="0.500000000000E-02" rmax="43.9674944076" />
<grid-data>
  0.000000000000E+00  5.020670286226E-03  1.002839488868E-02  1.504419146530E-02
  2.027130297145E-02  2.542795312469E-02  3.077510917124E-02  3.593736782770E-02
  4.097622089294E-02  4.616757116937E-02  5.139982494270E-02  5.654650141804E-02
  6.220851581082E-02  6.762595753660E-02  7.264345683615E-02  7.803322885668E-02
  8.382289432527E-02  8.897443012385E-02  9.444256583582E-02  1.002467588636E-01
  1.064076624107E-01  1.116079041230E-01  1.170622864982E-01  1.227832296276E-01
  1.287837605838E-01  1.350775430848E-01  1.416789086070E-01  1.468407994265E-01
  1.521907571722E-01  1.577356338231E-01  1.634825310017E-01  1.694388090690E-01
  1.756120965512E-01  1.820102999105E-01  1.886416136706E-01  1.955145309126E-01
  2.026378541519E-01  2.100207066126E-01  2.150914465530E-01  2.202846144386E-01
  2.256031661696E-01  2.310501290136E-01  2.366286033285E-01  2.423417643273E-01
  2.481928638852E-01  2.541852323908E-01  2.603222806417E-01  2.666075017855E-01
  2.730444733086E-01  2.796368590722E-01  2.863884113976E-01  2.933029732024E-01
  3.003844801874E-01  3.076369630770E-01  3.150645499135E-01  3.226714684067E-01
  3.304620483399E-01  3.384407240350E-01  3.466120368761E-01  3.549806378944E-01
  3.635512904158E-01  3.723288727715E-01  3.813183810757E-01  3.905249320684E-01
  3.999537660283E-01  4.096102497553E-01  4.194998796254E-01  4.245338781809E-01
  4.296282847191E-01  4.347838241357E-01  4.400012300253E-01  4.452812447856E-01
  4.506246197230E-01  4.560321151597E-01  4.615045005416E-01  4.670425545481E-01
  4.726470652027E-01  4.783188299851E-01  4.840586559450E-01  4.898673598163E-01
  4.957457681341E-01  5.016947173517E-01  5.077150539599E-01  5.138076346074E-01
  5.199733262227E-01  5.262130061374E-01  5.325275622111E-01  5.389178929576E-01
  5.453849076731E-01  5.519295265652E-01  5.585526808839E-01  5.652553130546E-01
  5.720383768112E-01  5.789028373329E-01  5.858496713809E-01  5.928798674375E-01
  5.999944258468E-01  6.071943589569E-01  6.144806912644E-01  6.218544595596E-01
  6.293167130743E-01  6.368685136312E-01  6.445109357948E-01  6.522450670243E-01
  6.600720078286E-01  6.679928719225E-01  6.760087863856E-01  6.841208918222E-01
  6.923303425241E-01  7.006383066344E-01  7.090459663140E-01  7.175545179098E-01
  7.261651721247E-01  7.348791541902E-01  7.436977040405E-01  7.526220764889E-01
  7.616535414068E-01  7.707933839037E-01  7.800429045105E-01  7.894034193647E-01
  7.988762603970E-01  8.084627755218E-01  8.181643288281E-01  8.279823007740E-01
  8.379180883833E-01  8.479731054439E-01  8.581487827092E-01  8.684465681017E-01
  8.788679269189E-01  8.894143420420E-01  9.000873141465E-01  9.108883619162E-01
  9.218190222592E-01  9.328808505263E-01  9.440754207327E-01  9.554043257814E-01
  9.668691776908E-01  9.784716078231E-01  9.902132671170E-01  1.002095826322E+00
  1.014120976238E+00  1.026290427953E+00  1.038605913089E+00  1.051069184046E+00
  1.063682014254E+00  1.076446198425E+00  1.089363552806E+00  1.102435915440E+00
  1.115665146425E+00  1.129053128182E+00  1.142601765721E+00  1.156312986909E+00
  1.170188742752E+00  1.184231007665E+00  1.198441779757E+00  1.212823081114E+00
  1.227376958088E+00  1.242105481585E+00  1.257010747364E+00  1.272094876332E+00
  1.287360014848E+00  1.302808335026E+00  1.318442035046E+00  1.334263339467E+00
  1.350274499541E+00  1.366477793535E+00  1.382875527058E+00  1.399470033382E+00
  1.416263673783E+00  1.433258837868E+00  1.450457943923E+00  1.467863439250E+00
  1.485477800521E+00  1.503303534127E+00  1.521343176537E+00  1.539599294655E+00
  1.558074486191E+00  1.576771380025E+00  1.595692636585E+00  1.614840948224E+00
  1.634219039603E+00  1.653829668078E+00  1.673675624095E+00  1.693759731584E+00
  1.714084848363E+00  1.734653866544E+00  1.755469712942E+00  1.776535349498E+00
  1.797853773692E+00  1.819428018976E+00  1.841261155204E+00  1.863356289066E+00
  1.885716564535E+00  1.908345163309E+00  1.931245305269E+00  1.954420248932E+00
  1.977873291919E+00  2.001607771422E+00  2.025627064680E+00  2.049934589456E+00
  2.074533804529E+00  2.099428210183E+00  2.124621348706E+00  2.150116804890E+00
  2.175918206549E+00  2.202029225027E+00  2.228453575728E+00  2.255195018636E+00
  2.282257358860E+00  2.309644447166E+00  2.337360180532E+00  2.365408502699E+00
  2.393793404731E+00  2.422518925588E+00  2.451589152695E+00  2.481008222527E+00
  2.510780321198E+00  2.540909685052E+00  2.571400601273E+00  2.602257408488E+00
  2.633484497390E+00  2.665086311359E+00  2.697067347095E+00  2.729432155260E+00
  2.762185341123E+00  2.795331565217E+00  2.828875543999E+00  2.862822050527E+00
  2.897175915133E+00  2.931942026115E+00  2.967125330428E+00  3.002730834394E+00
  3.038763604406E+00  3.075228767659E+00  3.112131512871E+00  3.149477091026E+00
  3.187270816118E+00  3.225518065911E+00  3.264224282702E+00  3.303394974095E+00
  3.343035713784E+00  3.383152142349E+00  3.423749968057E+00  3.464834967674E+00
  3.506412987286E+00  3.548489943134E+00  3.591071822451E+00  3.634164684321E+00
  3.677774660532E+00  3.721907956459E+00  3.766570851936E+00  3.811769702160E+00
  3.857510938585E+00  3.903801069848E+00  3.950646682687E+00  3.998054442879E+00
  4.046031096193E+00  4.094583469348E+00  4.143718470980E+00  4.193443092632E+00
  4.243764409743E+00  4.294689582660E+00  4.346225857652E+00  4.398380567944E+00
  4.451161134759E+00  4.504575068376E+00  4.558629969197E+00  4.613333528827E+00
  4.668693531173E+00  4.724717853547E+00  4.781414467790E+00  4.838791441403E+00
  4.896856938700E+00  4.955619221965E+00  5.015086652628E+00  5.075267692460E+00
  5.136170904769E+00  5.197804955626E+00  5.260178615094E+00  5.323300758475E+00
  5.387180367577E+00  5.451826531988E+00  5.517248450372E+00  5.583455431776E+00
  5.650456896957E+00  5.718262379721E+00  5.786881528277E+00  5.856324106617E+00
  5.926599995896E+00  5.997719195847E+00  6.069691826197E+00  6.142528128111E+00
  6.216238465649E+00  6.290833327237E+00  6.366323327163E+00  6.442719207089E+00
  6.520031837574E+00  6.598272219625E+00  6.677451486261E+00  6.757580904096E+00
  6.838671874945E+00  6.920735937445E+00  7.003784768694E+00  7.087830185918E+00
  7.172884148149E+00  7.258958757927E+00  7.346066263022E+00  7.434219058178E+00
  7.523429686877E+00  7.613710843119E+00  7.705075373236E+00  7.797536277715E+00
  7.891106713048E+00  7.985799993604E+00  8.081629593528E+00  8.178609148650E+00
  8.276752458434E+00  8.376073487935E+00  8.476586369790E+00  8.578305406228E+00
  8.681245071102E+00  8.785420011956E+00  8.890845052099E+00  8.997535192724E+00
  9.105505615037E+00  9.214771682418E+00  9.325348942607E+00  9.437253129918E+00
  9.550500167477E+00  9.665106169487E+00  9.781087443520E+00  9.898460492843E+00
  1.001724201876E+01  1.013744892298E+01  1.025909831006E+01  1.038220748978E+01
  1.050679397966E+01  1.063287550741E+01  1.076047001350E+01  1.088959565366E+01
  1.102027080151E+01  1.115251405112E+01  1.128634421974E+01  1.142178035037E+01
  1.155884171458E+01  1.169754781515E+01  1.183791838894E+01  1.197997340960E+01
  1.212373309052E+01  1.226921788760E+01  1.241644850226E+01  1.256544588428E+01
  1.271623123489E+01  1.286882600971E+01  1.302325192183E+01  1.317953094489E+01
  1.333768531623E+01  1.349773754003E+01  1.365971039051E+01  1.382362691519E+01
  1.398951043817E+01  1.415738456343E+01  1.432727317819E+01  1.449920045633E+01
  1.467319086181E+01  1.484926915215E+01  1.502746038197E+01  1.520778990656E+01
  1.539028338544E+01  1.557496678606E+01  1.576186638750E+01  1.595100878415E+01
  1.614242088956E+01  1.633612994023E+01  1.653216349951E+01  1.673054946151E+01
  1.693131605504E+01  1.713449184771E+01  1.734010574988E+01  1.754818701888E+01
  1.775876526310E+01  1.797187044626E+01  1.818753289162E+01  1.840578328631E+01
  1.862665268575E+01  1.885017251798E+01  1.907637458820E+01  1.930529108325E+01
  1.953695457625E+01  1.977139803117E+01  2.000865480754E+01  2.024875866523E+01
  2.049174376921E+01  2.073764469445E+01  2.098649643078E+01  2.123833438795E+01
  2.149319440060E+01  2.175111273341E+01  2.201212608621E+01  2.227627159925E+01
  2.254358685844E+01  2.281410990074E+01  2.308787921955E+01  2.336493377018E+01
  2.364531297542E+01  2.392905673113E+01  2.421620541190E+01  2.450679987685E+01
  2.480088147537E+01  2.509849205307E+01  2.539967395771E+01  2.570447004520E+01
  2.601292368574E+01  2.632507876997E+01  2.664097971521E+01  2.696067147179E+01
  2.728419952946E+01  2.761160992381E+01  2.794294924290E+01  2.827826463381E+01
  2.861760380942E+01  2.896101505513E+01  2.930854723579E+01  2.966024980262E+01
  3.001617280025E+01  3.037636687385E+01  3.074088327634E+01  3.110977387566E+01
  3.148309116216E+01  3.186088825611E+01  3.224321891518E+01  3.263013754217E+01
  3.302169919267E+01  3.341795958298E+01  3.381897509798E+01  3.422480279916E+01
  3.463550043275E+01  3.505112643794E+01  3.547173995519E+01  3.589740083466E+01
  3.632816964467E+01  3.676410768041E+01  3.720527697257E+01  3.765174029624E+01
  3.810356117980E+01  3.856080391396E+01  3.902353356092E+01  3.949181596366E+01
  3.996571775522E+01  4.044530636828E+01  4.093065004470E+01  4.142181784524E+01
  4.191887965938E+01  4.242190621529E+01  4.293096908988E+01  4.344614071895E+01
  4.396749440758E+01
</grid-data>
</grid>
<valence-charge total-charge="16" is-unscreening-charge="yes"
 rescaled-to-z-pseudo="no">
<radfunc>
<data npts="457">
  6.287906434072E-03  6.314851107333E-03  6.403296104409E-03  6.577190505142E-03
  6.891926207557E-03  7.396294605914E-03  8.205902337465E-03  9.362158171041E-03
  1.095389800185E-02  1.319916812045E-02  1.623084697093E-02  2.012634447970E-02
  2.566593804284E-02  3.241952129859E-02  4.014970880815E-02  5.026676921810E-02
  6.351792383972E-02  7.765262059574E-02  9.536159397122E-02  1.175481886912E-01
  1.453390467662E-01  1.725383888440E-01  2.050865113524E-01  2.440176144910E-01
  2.905573859959E-01  3.461554143704E-01  4.125220505777E-01  4.705620268349E-01
  5.367598308864E-01  6.122131608174E-01  6.981546931186E-01  7.959655684364E-01
  9.071894443736E-01  1.033546911873E+00  1.176949991605E+00  1.339516328592E+00
  1.523582584494E+00  1.731716384964E+00  1.885219791275E+00  2.051555865532E+00
  2.231666837062E+00  2.426544127889E+00  2.637227698387E+00  2.864804718797E+00
  3.110407449638E+00  3.375210202061E+00  3.660425236985E+00  3.967297449800E+00
  4.297097675740E+00  4.651114440287E+00  5.030643969514E+00  5.436978267918E+00
  5.871391066704E+00  6.335121444496E+00  6.829354926281E+00  7.355201876014E+00
  7.913673015221E+00  8.505651925542E+00  9.131864429096E+00  9.792844788549E+00
  1.048889873061E+01  1.122006337431E+01  1.198606424027E+01  1.278626963146E+01
  1.361964281024E+01  1.448469255242E+01  1.537942283628E+01  1.583714401522E+01
  1.630128262324E+01  1.677142502328E+01  1.724711690414E+01  1.772786192140E+01
  1.821312041966E+01  1.870230825136E+01  1.919479570867E+01  1.968990658564E+01
  2.018691738884E+01  2.068505671560E+01  2.118350481970E+01  2.168139338505E+01
  2.217780552860E+01  2.267177605411E+01  2.316229197887E+01  2.364829335550E+01
  2.412867441105E+01  2.460228502533E+01  2.506793257007E+01  2.552438412948E+01
  2.597036912216E+01  2.640458234251E+01  2.682568743854E+01  2.723232084050E+01
  2.762309615260E+01  2.799660901707E+01  2.835144245645E+01  2.868617269636E+01
  2.899937546668E+01  2.928963277446E+01  2.955554013662E+01  2.979571425498E+01
  3.000880111008E+01  3.019348444390E+01  3.034849459443E+01  3.047261763834E+01
  3.056470479022E+01  3.062368199924E+01  3.064855967666E+01  3.063844247931E+01
  3.059253906702E+01  3.051017174422E+01  3.039078588888E+01  3.023395906546E+01
  3.003940971259E+01  2.980700529123E+01  2.953676977476E+01  2.922889036024E+01
  2.888372327794E+01  2.850179857713E+01  2.808382376767E+01  2.763068620121E+01
  2.714345408149E+01  2.662337600202E+01  2.607187891958E+01  2.549056448543E+01
  2.488120367144E+01  2.424572964636E+01  2.358622887786E+01  2.290493045830E+01
  2.220419367708E+01  2.148649388859E+01  2.075440675260E+01  2.001059095286E+01
  1.925776952894E+01  1.849870998591E+01  1.773620337506E+01  1.697304256644E+01
  1.621199995960E+01  1.545580490177E+01  1.470712110182E+01  1.396852434401E+01
  1.324248081540E+01  1.253132636588E+01  1.183724701825E+01  1.116226103808E+01
  1.050820285839E+01  9.876709132241E+00  9.269207158044E+00  8.686905886718E+00
  8.130789678269E+00  7.601614928202E+00  7.099909632205E+00  6.625975902171E+00
  6.179895388922E+00  5.761537508622E+00  5.370570312284E+00  5.006473782774E+00
  4.668555292898E+00  4.355966913265E+00  4.067724221027E+00  3.802726231866E+00
  3.559776058538E+00  3.337601890908E+00  3.134877894919E+00  2.950244641479E+00
  2.782328700210E+00  2.629761066795E+00  2.491194134701E+00  2.365316971116E+00
  2.250868710868E+00  2.146649939031E+00  2.051531990652E+00  1.964464152472E+00
  1.884478804724E+00  1.810694589267E+00  1.742317153505E+00  1.678635767023E+00
  1.619017024729E+00  1.562900901733E+00  1.509797538106E+00  1.459282202431E+00
  1.410990266684E+00  1.364611870032E+00  1.319886511528E+00  1.276597702068E+00
  1.234567786092E+00  1.193653018149E+00  1.153738955955E+00  1.114736211007E+00
  1.076576580378E+00  1.039209569189E+00  1.002599416339E+00  9.667229620020E-01
  9.315680832340E-01  8.971316735021E-01  8.634172016810E-01  8.304314757819E-01
  7.981813620909E-01  7.666731971424E-01  7.359130481766E-01  7.059063638462E-01
  6.766578825195E-01  6.481715238755E-01  6.204503017765E-01  5.934962540562E-01
  5.673103880906E-01  5.418926410519E-01  5.172418537461E-01  4.933557569515E-01
  4.702309691111E-01  4.478630044513E-01  4.262462903567E-01  4.053741930583E-01
  3.852390506482E-01  3.658322124942E-01  3.471440841059E-01  3.291641767058E-01
  3.118811605880E-01  2.952829215615E-01  2.793566197539E-01  2.640887501131E-01
  2.494652039940E-01  2.354713312672E-01  2.220920024352E-01  2.093116702892E-01
  1.971144306909E-01  1.854840821043E-01  1.744041835543E-01  1.638581107147E-01
  1.538291099120E-01  1.443003498094E-01  1.352549706221E-01  1.266761307308E-01
  1.185470505949E-01  1.108510538997E-01  1.035716058984E-01  9.669234893788E-02
  9.019713518091E-02  8.407005655640E-02  7.829547199160E-02  7.285803199419E-02
  6.774270066679E-02  6.293477524770E-02  5.841990328037E-02  5.418409752034E-02
  5.021374869248E-02  4.649563621297E-02  4.301693699032E-02  3.976523241788E-02
  3.672851366672E-02  3.389518538366E-02  3.125406789379E-02  2.879439800170E-02
  2.650582847978E-02  2.437842632717E-02  2.240266987784E-02  2.056944483288E-02
  1.887003928832E-02  1.729613782823E-02  1.583981475094E-02  1.449352649567E-02
  1.325010333706E-02  1.210274041488E-02  1.104498816731E-02  1.007074223654E-02
  9.174232916001E-03  8.350014208642E-03  7.592952565759E-03  6.898215374847E-03
  6.261259263910E-03  5.677818287728E-03  5.143892059158E-03  4.655733885588E-03
  4.209838967163E-03  3.802932709518E-03  3.431959199487E-03  3.094069887751E-03
  2.786612517671E-03  2.507120334790E-03  2.253301606646E-03  2.023029477805E-03
  1.814332180398E-03  1.625383615966E-03  1.454494320223E-03  1.300102818381E-03
  1.160767375009E-03  1.035158139095E-03  9.220496819529E-04  8.203139230095E-04
  7.289134361925E-04  6.468951277092E-04  5.733842744085E-04  5.075789106398E-04
  4.487445505531E-04  3.962092320966E-04  3.493588685322E-04  3.076328930813E-04
  2.705201822964E-04  2.375552439051E-04  2.083146551522E-04  1.824137380561E-04
  1.595034584554E-04  1.392675362453E-04  1.214197547505E-04  1.057014577497E-04
  9.187922323513E-05  7.974270354412E-05  6.910262204220E-05  5.978891704624E-05
  5.164902416580E-05  4.454628869441E-05  3.835850011054E-05  3.297654114865E-05
  2.830314427100E-05  2.425174872070E-05  2.074545166571E-05  1.771604725252E-05
  1.510314768223E-05  1.285338070324E-05  1.091965818438E-05  9.260510693373E-06
  7.839483257851E-06  6.624587732716E-06  5.587807437461E-06  4.704649961858E-06
  3.953744267876E-06  3.316478439925E-06  2.776674654525E-06  2.320298153904E-06
  1.935197215608E-06  1.610871311483E-06  1.338264844078E-06  1.109584036133E-06
  9.181347290613E-07  7.581790188639E-07  6.248088224341E-07  5.138346235799E-07
  4.216877960952E-07  3.453350408248E-07  2.822036048611E-07  2.301160738457E-07
  1.872336429314E-07  1.520068784685E-07  1.231330811252E-07  9.951945218528E-08
  8.025134849658E-08  6.456498827599E-08  5.182404006391E-08  4.149959091993E-08
  3.315304783107E-08  2.642157864060E-08  2.100574597311E-08  1.665903000360E-08
  1.317897385776E-08  1.039971929303E-08  8.185730435985E-09  6.426530068964E-09
  5.032296577758E-09  3.930190486055E-09  3.061297786931E-09  2.378093293547E-09
  1.842341209045E-09  1.423362279498E-09  1.096607445938E-09  8.424870366925E-10
  6.454124077801E-10  4.930136991363E-10  3.755031652998E-10  2.851584841255E-10
  2.159046562444E-10  1.629766794147E-10  1.226482025139E-10  9.201391041992E-11
  6.881553088983E-11  5.130314682697E-11  3.812499357754E-11  2.824016587591E-11
  2.084969152210E-11  1.534228222956E-11  1.125177501652E-11  8.223854574053E-12
  5.990119142462E-12  4.347937320189E-12  3.144855928114E-12  2.266572204060E-12
  1.627687817330E-12  1.164626340380E-12  8.302272772447E-13  5.896346489970E-13
  4.171815326669E-13  2.940380025343E-13  2.064420410903E-13  1.443739539619E-13
  1.005669006558E-13  6.977117225649E-14  4.820928451007E-14  3.317399537411E-14
  2.273294781894E-14  1.551253598708E-14  1.054039397253E-14  7.131083591819E-15
  4.803482901958E-15  3.221336588287E-15  2.150660812330E-15  1.429355447530E-15
  9.456214591166E-16  6.227003638353E-16  4.081326211302E-16  2.662313824413E-16
  1.728335234507E-16  1.116560443359E-16  7.177883154031E-17  4.591392532793E-17
  2.922132736722E-17  1.850273945248E-17  1.165534722734E-17  7.303637910936E-18
  4.552488760484E-18  2.822430184952E-18  0.000000000000E+00  0.000000000000E+00
  0.000000000000E+00  0.000000000000E+00  0.000000000000E+00  0.000000000000E+00
  0.000000000000E+00  0.000000000000E+00  0.000000000000E+00  0.000000000000E+00
  0.000000000000E+00  0.000000000000E+00  0.000000000000E+00  0.000000000000E+00
  0.000000000000E+00  0.000000000000E+00  0.000000000000E+00  0.000000000000E+00
  0.000000000000E+00  0.000000000000E+00  0.000000000000E+00  0.000000000000E+00
  0.000000000000E+00  0.000000000000E+00  0.000000000000E+00  0.000000000000E+00
  0.000000000000E+00  0.000000000000E+00  0.000000000000E+00  0.000000000000E+00
  0.000000000000E+00  0.000000000000E+00  0.000000000000E+00  0.000000000000E+00
  0.000000000000E+00  0.000000000000E+00  0.000000000000E+00  0.000000000000E+00
  0.000000000000E+00
</data>
</radfunc>
</valence-charge>
<pseudocore-charge matching-radius="0.644510935795"
 number-of-continuous-derivatives="4">
<annotation model-charge-form="Teter function with specified parameters" />
<radfunc>
<data npts="291">
  1.531575988579E+02  1.531426178859E+02  1.530978375661E+02  1.530231380872E+02
  1.529135506773E+02  1.527737598250E+02  1.525956607639E+02  1.523918079977E+02
  1.521627070915E+02  1.518956858736E+02  1.515948966165E+02  1.512681870774E+02
  1.508736567830E+02  1.504619811787E+02  1.500511062697E+02  1.495783055061E+02
  1.490344767497E+02  1.485195930877E+02  1.479414734054E+02  1.472926351685E+02
  1.465647866806E+02  1.459194910499E+02  1.452126548532E+02  1.444387463559E+02
  1.435918073059E+02  1.426654353378E+02  1.416527693587E+02  1.408322476037E+02
  1.399558043534E+02  1.390200220507E+02  1.380213348571E+02  1.369560321732E+02
  1.358202642759E+02  1.346100504282E+02  1.333212898615E+02  1.319497760667E+02
  1.304912148764E+02  1.289412468570E+02  1.278549823137E+02  1.267248324489E+02
  1.255494953000E+02  1.243276782457E+02  1.230581041492E+02  1.217395181485E+02
  1.203706951320E+02  1.189504479355E+02  1.174776362961E+02  1.159511765946E+02
  1.143700524165E+02  1.127333259551E+02  1.110401502769E+02  1.092897824607E+02
  1.074815976140E+02  1.056151037613E+02  1.036899575834E+02  1.017059809780E+02
  9.966317838983E+01  9.756175484480E+01  9.540213459810E+01  9.318498028367E+01
  9.091121242593E+01  8.858202914450E+01  8.619892585119E+01  8.376371470323E+01
  8.127854353951E+01  7.874591398726E+01  7.616869838551E+01  7.486437360393E+01
  7.355015512919E+01  7.222651276974E+01  7.089394199581E+01  6.955296421135E+01
  6.820412697472E+01  6.684800416355E+01  6.548519607954E+01  6.411632948814E+01
  6.274205758874E+01  6.136305991041E+01  5.998004212830E+01  5.859373579589E+01
  5.720489798820E+01  5.581431085098E+01  5.442278105118E+01  5.303113912400E+01
  5.164023871176E+01  5.025095569041E+01  4.886418717921E+01  4.748085042994E+01
  4.610188159170E+01  4.472823434826E+01  4.336087842506E+01  4.200079796348E+01
  4.064898976056E+01  3.930646137315E+01  3.797422908570E+01  3.665331574217E+01
  3.534474844298E+01  3.404955610905E+01  3.276876691570E+01  3.150340560045E+01
  3.025449064970E+01  2.902303137050E+01  2.781002485476E+01  2.661645284471E+01
  2.544327850940E+01  2.429144314391E+01  2.316186280385E+01  2.205542488941E+01
  2.097298469471E+01  1.991536193951E+01  1.888333730173E+01  1.787764897090E+01
  1.689898924360E+01  1.594800118367E+01  1.502527537066E+01  1.413134676165E+01
  1.326669169181E+01  1.243172504058E+01  1.162679759023E+01  1.085219360452E+01
  1.010812865485E+01  9.394747721431E+00  8.712123596442E+00  8.060255615436E+00
  7.439068742081E+00  6.848413029956E+00  6.288063483212E+00  5.757720335695E+00
  5.257009765482E+00  4.785485058726E+00  4.342628233261E+00  3.927852128544E+00
  3.540502964297E+00  3.179863365574E+00  2.845155847115E+00  2.535546744577E+00
  2.250150574843E+00  1.988034801972E+00  1.748224979653E+00  1.529710235302E+00
  1.331449055282E+00  1.152375325249E+00  9.914045744127E-01  8.474403677063E-01
  7.193807855225E-01  6.061249270204E-01  5.065793700462E-01  4.196645186410E-01
  3.443207679868E-01  2.795144165942E-01  2.242432566307E-01  1.775417756062E-01
  1.384859062085E-01  1.061972659486E-01  7.984683441846E-02  5.865802334744E-02
  4.190910320376E-02  2.893495970169E-02  1.912816411662E-02  1.193935258686E-02
  6.876921383395E-03  3.506057207085E-03  1.447133651988E-03  3.735167542939E-04
  8.833715134142E-06  1.237691215461E-04  5.324619753175E-04  1.088584271222E-03
  1.681187467016E-03  2.230406718902E-03  2.683114030022E-03  3.008610350287E-03
  3.194443120648E-03  3.242429802134E-03  3.164959685233E-03  2.981635944289E-03
  2.716307779302E-03  2.394528952841E-03  2.041464536223E-03  1.680252740374E-03
  1.330813878526E-03  1.009084365031E-03  7.266407654496E-04  4.906678117960E-04
  3.042154543152E-04  1.666838172845E-04  7.447162442697E-05  2.172338539558E-05
  1.113362009957E-06  4.609875896996E-06  2.417153565411E-05  5.233696519507E-05
  8.268099791998E-05  1.101223676764E-04  1.310799338803E-04  1.434856818200E-04
  1.466724486587E-04  1.411619516339E-04  1.283837964617E-04  1.103584660514E-04
  8.937678857039E-05  6.770523623035E-05  4.734099980607E-05  2.983369009958E-05
  1.618244489875E-05  6.808953167430E-06  1.599236477300E-06  6.691630628494E-10
  1.156248191778E-06  4.055912161809E-06  7.684881445345E-06  1.115141140061E-05
  1.378063130168E-05  1.516668911344E-05  1.518150359878E-05  1.394425739482E-05
  1.176061278364E-05  9.043905213158E-06  6.231901752684E-06  3.712012428076E-06
  1.765312441564E-06  5.358366643899E-07  2.700379184460E-08  0.000000000000E+00
  0.000000000000E+00  0.000000000000E+00  0.000000000000E+00  0.000000000000E+00
  0.000000000000E+00  0.000000000000E+00  0.000000000000E+00  0.000000000000E+00
  0.000000000000E+00  0.000000000000E+00  0.000000000000E+00  0.000000000000E+00
  0.000000000000E+00  0.000000000000E+00  0.000000000000E+00  0.000000000000E+00
  0.000000000000E+00  0.000000000000E+00  0.000000000000E+00  0.000000000000E+00
  0.000000000000E+00  0.000000000000E+00  0.000000000000E+00  0.000000000000E+00
  0.000000000000E+00  0.000000000000E+00  0.000000000000E+00  0.000000000000E+00
  0.000000000000E+00  0.000000000000E+00  0.000000000000E+00  0.000000000000E+00
  0.000000000000E+00  0.000000000000E+00  0.000000000000E+00  0.000000000000E+00
  0.000000000000E+00  0.000000000000E+00  0.000000000000E+00  0.000000000000E+00
  0.000000000000E+00  0.000000000000E+00  0.000000000000E+00  0.000000000000E+00
  0.000000000000E+00  0.000000000000E+00  0.000000000000E+00  0.000000000000E+00
  0.000000000000E+00  0.000000000000E+00  0.000000000000E+00  0.000000000000E+00
  0.000000000000E+00  0.000000000000E+00  0.000000000000E+00  0.000000000000E+00
  0.000000000000E+00  0.000000000000E+00  0.000000000000E+00  0.000000000000E+00
  0.000000000000E+00  0.000000000000E+00  0.000000000000E+00  0.000000000000E+00
  0.000000000000E+00  0.000000000000E+00  0.000000000000E+00
</data>
</radfunc>
</pseudocore-charge>
<semilocal-potentials set="scalar_relativistic">
<slps n="4" l="s" rc="1.81942801898" eref="-0.635470212085">
<radfunc>
<data npts="291">
  4.519058378435E+01  4.515804264416E+01  4.506095166054E+01  4.489958759500E+01
  4.466419959174E+01  4.436622634785E+01  4.399026719594E+01  4.356491065702E+01
  4.309308269410E+01  4.255127935023E+01  4.195117916899E+01  4.131131033682E+01
  4.055469730845E+01  3.978335160156E+01  3.903134504057E+01  3.818724810456E+01
  3.724335210041E+01  3.637521023874E+01  3.542872259424E+01  3.440044076401E+01
  3.328755161601E+01  3.233494585337E+01  3.132631492826E+01  3.026154752027E+01
  2.914105252952E+01  2.796580883735E+01  2.673740684519E+01  2.578253852684E+01
  2.480019591540E+01  2.379177387497E+01  2.275887497502E+01  2.170330409136E+01
  2.062705967224E+01  1.953232165769E+01  1.842143613853E+01  1.729689694535E+01
  1.616132446102E+01  1.501744204988E+01  1.425161791069E+01  1.348418779499E+01
  1.271600163988E+01  1.194791213083E+01  1.118077106201E+01  1.041542574876E+01
  9.652715530840E+00  8.893468404115E+00  8.138497816499E+00  7.388599661832E+00
  6.644549502435E+00  5.907100047814E+00  5.176978913279E+00  4.454886678164E+00
  3.741495259053E+00  3.037446608883E+00  2.343351748260E+00  1.659790130661E+00
  9.873093386991E-01  3.264251041599E-01 -3.223783596663E-01 -9.586477288326E-01
 -1.581959661905E+00 -2.191919637938E+00 -2.788160564741E+00 -3.370341185567E+00
 -3.938144314661E+00 -4.491274934184E+00 -5.029458186870E+00 -5.292863660438E+00
 -5.552437300541E+00 -5.808149490877E+00 -6.059971482467E+00 -6.307875329035E+00
 -6.551833823559E+00 -6.791820436326E+00 -7.027809254856E+00 -7.259774926138E+00
 -7.487692601531E+00 -7.711537884754E+00 -7.931286783438E+00 -8.146915664685E+00
 -8.358401215104E+00 -8.565720405858E+00 -8.768850463222E+00 -8.967768845217E+00
 -9.162453224900E+00 -9.352881480876E+00 -9.539031695677E+00 -9.720882162621E+00
 -9.898411401791E+00 -1.007159818579E+01 -1.024042157595E+01 -1.040486096956E+01
 -1.056489615884E+01 -1.072050740222E+01 -1.087167550842E+01 -1.101838193389E+01
 -1.116060889400E+01 -1.129833948822E+01 -1.143155783946E+01 -1.156024924768E+01
 -1.168440035729E+01 -1.180399933825E+01 -1.191903607988E+01 -1.202950239663E+01
 -1.213539224443E+01 -1.223670194606E+01 -1.233343042366E+01 -1.242557943616E+01
 -1.251315381897E+01 -1.259616172329E+01 -1.267461485191E+01 -1.274852868814E+01
 -1.281792271466E+01 -1.288282061876E+01 -1.294325048039E+01 -1.299924493993E+01
 -1.305084134199E+01 -1.309808185249E+01 -1.314101354588E+01 -1.317968845982E+01
 -1.321416361467E+01 -1.324450099539E+01 -1.327076749342E+01 -1.329303480589E+01
 -1.331137928964E+01 -1.332588176694E+01 -1.333662727949E+01 -1.334370478663E+01
 -1.334720680312E+01 -1.334722897104E+01 -1.334386955963E+01 -1.333722888641E+01
 -1.332740865236E+01 -1.331451118443E+01 -1.329863857889E+01 -1.327989174169E+01
 -1.325836932461E+01 -1.323416656198E+01 -1.320737401999E+01 -1.317807628177E+01
 -1.314635060456E+01 -1.311226560196E+01 -1.307588002232E+01 -1.303724171204E+01
 -1.299638686713E+01 -1.295333968289E+01 -1.290811250547E+01 -1.286070656391E+01
 -1.281111331317E+01 -1.275931634526E+01 -1.270529372705E+01 -1.264902050740E+01
 -1.259047101390E+01 -1.252962044987E+01 -1.246644523108E+01 -1.240092150531E+01