<?xml version="1.0" encoding="UTF-8" ?>
<psml version="1.1" energy_unit="hartree" length_unit="bohr"
 uuid="d6d16670-1d65-11e8-5e6a-7a25db9f2820"
 xmlns="http://esl.cecam.org/PSML/ns/1.1">
<provenance creator="ONCVPSP-3.3.0+psml-3.3.0-73 (scalar-relativistic)"
 date="2018-03-01">
<annotation action="semilocal-pseudopotential-generation"
 action-cont="projectors-generation" />
<input-file name="oncvpsp-input">
<![CDATA[# atsym z nc nv iexc psfile
Pd 46 6 3 -116133 upf
# n l f
1 0 2.0
2 0 2.0
2 1 6.0
3 0 2.0
3 1 6.0
3 2 10.0
4 0 2.0
4 1 6.0
4 2 10.0
# lmax
2
# l rc ep ncon nbas qcut
0 1.4 0.0 4 7 8.8
1 1.45 0.0 4 7 8.8
2 1.55 0.0 4 7 8.8
# lloc lpopt rc5 dvloc0
4 5 1.4 0.0
# l nproj debl
0 2 3.0
1 2 1.8
2 2 1.5
# icmod fcfact
3 7.0 1.23
# epsh1 epsh2 depsh
-14.0 12.0 0.02
# rlmax drl
6.0 0.01
 0
]]>
</input-file>
</provenance>
<pseudo-atom-spec atomic-label="Pd" atomic-number="46" z-pseudo="18"
 flavor="Hamann&apos;s oncvpsp" relativity="scalar" spin-dft="no"
 core-corrections="yes">
<annotation pseudo-energy="-128.195558224" />
<exchange-correlation>
<annotation oncvpsp-xc-code="-116133" oncvpsp-xc-type="libxc-interface" />
<libxc-info number-of-functionals="2">
<functional name="Perdew, Burke &amp; Ernzerhof SOL (GGA)" type="exchange"
 id="116" />
<functional name="Perdew, Burke &amp; Ernzerhof SOL (GGA)" type="correlation"
 id="133" />
</libxc-info>
</exchange-correlation>
<valence-configuration total-valence-charge="18">
<shell n="4" l="s" occupation="2" />
<shell n="4" l="p" occupation="6" />
<shell n="4" l="d" occupation="10" />
</valence-configuration>
</pseudo-atom-spec>
<grid npts="457">
<annotation type="sampled from oncvpsp log grid"
 recipe="r(i:1..N) = r1*exp(a*(i-1)) + r=0; resampled"
 recipe-cont="r1: scale; a: step" scale="0.108695652174E-04"
 step="0.119285708653E-01" delta="0.500000000000E-02" rmax="44.3145279533" />
<grid-data>
  0.000000000000E+00  5.000294685022E-03  1.010754857899E-02  1.516293462264E-02
  2.018903507460E-02  2.532475777372E-02  3.065021322792E-02  3.579152166903E-02
  4.080992534112E-02  4.598020733843E-02  5.119122683222E-02  5.631701633006E-02
  6.195605232738E-02  6.735150821743E-02  7.321682852214E-02  7.864914178183E-02
  8.448450483140E-02  8.967670148086E-02  9.518799695324E-02  1.010380022274E-01
  1.072475335217E-01  1.124888205185E-01  1.179862540997E-01  1.237523523875E-01
  1.298002452770E-01  1.361437043330E-01  1.427971741499E-01  1.479998075521E-01
  1.533919922845E-01  1.589806344088E-01  1.647728916001E-01  1.707761823144E-01
  1.769981952897E-01  1.834468993934E-01  1.901305538283E-01  1.970577187110E-01
  2.042372660348E-01  2.116783910330E-01  2.167891541061E-01  2.220233114428E-01
  2.273838422743E-01  2.328737977622E-01  2.384963027354E-01  2.442545574686E-01
  2.501518395041E-01  2.561915055171E-01  2.623769932263E-01  2.687118233508E-01
  2.751996016138E-01  2.818440207951E-01  2.886488628332E-01  2.956180009774E-01
  3.027554019930E-01  3.100651284188E-01  3.175513408793E-01  3.252183004535E-01
  3.330703710996E-01  3.411120221395E-01  3.493478308020E-01  3.577824848289E-01
  3.664207851426E-01  3.752676485791E-01  3.843281106864E-01  3.936073285908E-01
  4.031105839323E-01  4.128432858707E-01  4.228109741648E-01  4.278847058548E-01
  4.330193223250E-01  4.382155541929E-01  4.434741408433E-01  4.487958305334E-01
  4.541813804998E-01  4.596315570658E-01  4.651471357506E-01  4.707289013796E-01
  4.763776481961E-01  4.820941799745E-01  4.878793101342E-01  4.937338618558E-01
  4.996586681980E-01  5.056545722164E-01  5.117224270830E-01  5.178630962080E-01
  5.240774533625E-01  5.303663828029E-01  5.367307793965E-01  5.431715487493E-01
  5.496896073342E-01  5.562858826223E-01  5.629613132137E-01  5.697168489723E-01
  5.765534511600E-01  5.834720925739E-01  5.904737576848E-01  5.975594427770E-01
  6.047301560903E-01  6.119869179634E-01  6.193307609790E-01  6.267627301107E-01
  6.342838828720E-01  6.418952894665E-01  6.495980329401E-01  6.573932093354E-01
  6.652819278474E-01  6.732653109816E-01  6.813444947133E-01  6.895206286499E-01
  6.977948761937E-01  7.061684147080E-01  7.146424356845E-01  7.232181449127E-01
  7.318967626517E-01  7.406795238035E-01  7.495676780892E-01  7.585624902262E-01
  7.676652401089E-01  7.768772229902E-01  7.861997496661E-01  7.956341466621E-01
  8.051817564221E-01  8.148439374991E-01  8.246220647491E-01  8.345175295261E-01
  8.445317398804E-01  8.546661207590E-01  8.649221142081E-01  8.753011795786E-01
  8.858047937335E-01  8.964344512583E-01  9.071916646734E-01  9.180779646495E-01
  9.290949002253E-01  9.402440390280E-01  9.515269674964E-01  9.629452911063E-01
  9.745006345996E-01  9.861946422148E-01  9.980289779214E-01  1.010005325656E+00
  1.022125389564E+00  1.034390894239E+00  1.046803584970E+00  1.059365227990E+00
  1.072077610725E+00  1.084942542054E+00  1.097961852559E+00  1.111137394790E+00
  1.124471043527E+00  1.137964696049E+00  1.151620272402E+00  1.165439715671E+00
  1.179424992259E+00  1.193578092166E+00  1.207901029272E+00  1.222395841623E+00
  1.237064591723E+00  1.251909366823E+00  1.266932279225E+00  1.282135466576E+00
  1.297521092175E+00  1.313091345281E+00  1.328848441424E+00  1.344794622721E+00
  1.360932158194E+00  1.377263344092E+00  1.393790504221E+00  1.410515990272E+00
  1.427442182155E+00  1.444571488341E+00  1.461906346201E+00  1.479449222356E+00
  1.497202613024E+00  1.515169044380E+00  1.533351072913E+00  1.551751285788E+00
  1.570372301217E+00  1.589216768832E+00  1.608287370058E+00  1.627586818499E+00
  1.647117860321E+00  1.666883274644E+00  1.686885873940E+00  1.707128504427E+00
  1.727614046480E+00  1.748345415038E+00  1.769325560019E+00  1.790557466739E+00
  1.812044156340E+00  1.833788686216E+00  1.855794150450E+00  1.878063680256E+00
  1.900600444419E+00  1.923407649752E+00  1.946488541549E+00  1.969846404048E+00
  1.993484560896E+00  2.017406375627E+00  2.041615252134E+00  2.066114635160E+00
  2.090908010782E+00  2.115998906911E+00  2.141390893794E+00  2.167087584520E+00
  2.193092635534E+00  2.219409747160E+00  2.246042664126E+00  2.272995176096E+00
  2.300271118209E+00  2.327874371628E+00  2.355808864087E+00  2.384078570456E+00
  2.412687513302E+00  2.441639763461E+00  2.470939440623E+00  2.500590713910E+00
  2.530597802477E+00  2.560964976107E+00  2.591696555820E+00  2.622796914490E+00
  2.654270477464E+00  2.686121723193E+00  2.718355183872E+00  2.750975446078E+00
  2.783987151431E+00  2.817394997248E+00  2.851203737215E+00  2.885418182062E+00
  2.920043200247E+00  2.955083718650E+00  2.990544723273E+00  3.026431259953E+00
  3.062748435072E+00  3.099501416293E+00  3.136695433289E+00  3.174335778488E+00
  3.212427807830E+00  3.250976941524E+00  3.289988664822E+00  3.329468528800E+00
  3.369422151146E+00  3.409855216959E+00  3.450773479563E+00  3.492182761318E+00
  3.534088954453E+00  3.576498021907E+00  3.619415998170E+00  3.662848990148E+00
  3.706803178030E+00  3.751284816166E+00  3.796300233960E+00  3.841855836767E+00
  3.887958106809E+00  3.934613604090E+00  3.981828967339E+00  4.029610914947E+00
  4.077966245927E+00  4.126901840878E+00  4.176424662968E+00  4.226541758924E+00
  4.277260260031E+00  4.328587383152E+00  4.380530431749E+00  4.433096796930E+00
  4.486293958494E+00  4.540129485995E+00  4.594611039827E+00  4.649746372305E+00
  4.705543328773E+00  4.762009848718E+00  4.819153966903E+00  4.876983814506E+00
  4.935507620280E+00  4.994733711723E+00  5.054670516264E+00  5.115326562459E+00
  5.176710481208E+00  5.238831006983E+00  5.301696979067E+00  5.365317342816E+00
  5.429701150929E+00  5.494857564741E+00  5.560795855517E+00  5.627525405784E+00
  5.695055710653E+00  5.763396379181E+00  5.832557135731E+00  5.902547821360E+00
  5.973378395216E+00  6.045058935959E+00  6.117599643190E+00  6.191010838909E+00
  6.265302968975E+00  6.340486604603E+00  6.416572443858E+00  6.493571313185E+00
  6.571494168943E+00  6.650352098970E+00  6.730156324158E+00  6.810918200048E+00
  6.892649218448E+00  6.975361009070E+00  7.059065341179E+00  7.143774125273E+00
  7.229499414776E+00  7.316253407753E+00  7.404048448646E+00  7.492897030030E+00
  7.582811794390E+00  7.673805535923E+00  7.765891202354E+00  7.859081896782E+00
  7.953390879544E+00  8.048831570098E+00  8.145417548939E+00  8.243162559527E+00
  8.342080510241E+00  8.442185476364E+00  8.543491702080E+00  8.646013602505E+00
  8.749765765735E+00  8.854762954924E+00  8.961020110383E+00  9.068552351708E+00
  9.177374979928E+00  9.287503479688E+00  9.398953521444E+00  9.511740963701E+00
  9.625881855266E+00  9.741392437529E+00  9.858289146779E+00  9.976588616540E+00
  1.009630767994E+01  1.021746337210E+01  1.034007293256E+01  1.046415380775E+01
  1.058972365345E+01  1.071680033729E+01  1.084540194134E+01  1.097554676463E+01
  1.110725332581E+01  1.124054036572E+01  1.137542685011E+01  1.151193197231E+01
  1.165007515597E+01  1.178987605785E+01  1.193135457054E+01  1.207453082539E+01
  1.221942519529E+01  1.236605829764E+01  1.251445099721E+01  1.266462440917E+01
  1.281659990208E+01  1.297039910091E+01  1.312604389012E+01  1.328355641680E+01
  1.344295909380E+01  1.360427460293E+01  1.376752589816E+01  1.393273620894E+01
  1.409992904345E+01  1.426912819197E+01  1.444035773027E+01  1.461364202304E+01
  1.478900572731E+01  1.496647379604E+01  1.514607148159E+01  1.532782433937E+01
  1.551175823145E+01  1.569789933022E+01  1.588627412219E+01  1.607690941165E+01
  1.626983232459E+01  1.646507031249E+01  1.666265115624E+01  1.686260297011E+01
  1.706495420575E+01  1.726973365622E+01  1.747697046010E+01  1.768669410562E+01
  1.789893443488E+01  1.811372164810E+01  1.833108630788E+01  1.855105934357E+01
  1.877367205570E+01  1.899895612037E+01  1.922694359381E+01  1.945766691694E+01
  1.969115891994E+01  1.992745282698E+01  2.016658226090E+01  2.040858124803E+01
  2.065348422301E+01  2.090132603369E+01  2.115214194609E+01  2.140596764944E+01
  2.166283926124E+01  2.192279333237E+01  2.218586685236E+01  2.245209725459E+01
  2.272152242164E+01  2.299418069070E+01  2.327011085899E+01  2.354935218930E+01
  2.383194441557E+01  2.411792774856E+01  2.440734288154E+01  2.470023099612E+01
  2.499663376807E+01  2.529659337329E+01  2.560015249377E+01  2.590735432369E+01
  2.621824257558E+01  2.653286148649E+01  2.685125582432E+01  2.717347089421E+01
  2.749955254495E+01  2.782954717548E+01  2.816350174159E+01  2.850146376249E+01
  2.884348132764E+01  2.918960310357E+01  2.953987834081E+01  2.989435688090E+01
  3.025308916347E+01  3.061612623344E+01  3.098351974824E+01  3.135532198522E+01
  3.173158584904E+01  3.211236487923E+01  3.249771325778E+01  3.288768581687E+01
  3.328233804667E+01  3.368172610323E+01  3.408590681647E+01  3.449493769827E+01
  3.490887695065E+01  3.532778347406E+01  3.575171687575E+01  3.618073747826E+01
  3.661490632799E+01  3.705428520393E+01  3.749893662638E+01  3.794892386589E+01
  3.840431095228E+01  3.886516268371E+01  3.933154463592E+01  3.980352317155E+01
  4.028116544961E+01  4.076453943500E+01  4.125371390822E+01  4.174875847512E+01
  4.224974357682E+01  4.275674049974E+01  4.326982138574E+01  4.378905924237E+01
  4.431452795328E+01
</grid-data>
</grid>
<valence-charge total-charge="18" is-unscreening-charge="yes"
 rescaled-to-z-pseudo="no">
<radfunc>
<data npts="457">
  1.441595865099E+00  1.443548293954E+00  1.449573902756E+00  1.459551676365E+00
  1.473431751153E+00  1.491695934724E+00  1.514995368228E+00  1.541705410233E+00
  1.571776372452E+00  1.606895027989E+00  1.646545563903E+00  1.689721737632E+00
  1.742011576597E+00  1.796749542190E+00  1.861486153280E+00  1.926314453097E+00
  2.001181460309E+00  2.072358579807E+00  2.152618489134E+00  2.243124937819E+00
  2.345190736105E+00  2.436154803325E+00  2.536304355569E+00  2.646567332875E+00
  2.767963779857E+00  2.901614117968E+00  3.048747814566E+00  3.168752432307E+00
  3.297711726340E+00  3.436282972269E+00  3.585167833192E+00  3.745114286608E+00
  3.916918347303E+00  4.101425493803E+00  4.299531684073E+00  4.512183820346E+00
  4.740379492704E+00  4.985165795935E+00  5.158112212930E+00  5.339252805208E+00
  5.528930599476E+00  5.727495649550E+00  5.935303957821E+00  6.152716163319E+00
  6.380095966274E+00  6.617808256466E+00  6.866216910105E+00  7.125682217379E+00
  7.396557900456E+00  7.679187679468E+00  7.973901342183E+00  8.281010271635E+00
  8.600802385228E+00  8.933536438850E+00  9.279435650623E+00  9.638680601265E+00
  1.001140137199E+01  1.039766888671E+01  1.079748543336E+01  1.121077434994E+01
  1.163736887460E+01  1.207700017627E+01  1.252928460369E+01  1.299371021579E+01
  1.346962268689E+01  1.395621071512E+01  1.445249110308E+01  1.470390797892E+01
  1.495729372548E+01  1.521247042744E+01  1.546924664957E+01  1.572741700340E+01
  1.598676173035E+01  1.624704630507E+01  1.650802106285E+01  1.676942085511E+01
  1.703096473752E+01  1.729235569528E+01  1.755328041044E+01  1.781340907653E+01
  1.807239526566E+01  1.832987585383E+01  1.858547101014E+01  1.883878425580E+01
  1.908940259908E+01  1.933689675230E+01  1.958082143714E+01  1.982071578447E+01
  2.005610383492E+01  2.028649514638E+01  2.051138551420E+01  2.073025781010E+01
  2.094258294488E+01  2.114782096027E+01  2.134542225423E+01  2.153482894378E+01
  2.171547636876E+01  2.188679473871E+01  2.204821092490E+01  2.219915039775E+01
  2.233903930935E+01  2.246730671923E+01  2.258338696022E+01  2.268672213989E+01
  2.277676477130E+01  2.285298052518E+01  2.291485109393E+01  2.296187715580E+01
  2.299358142581E+01  2.300951177790E+01  2.300924442072E+01  2.299238710751E+01
  2.295858235834E+01  2.290751067117E+01  2.283889369603E+01  2.275249734498E+01
  2.264813480864E+01  2.252566944885E+01  2.238501753538E+01  2.222615079400E+01
  2.204909873214E+01  2.185395070827E+01  2.164085771113E+01  2.141003381542E+01
  2.116175728140E+01  2.089637126762E+01  2.061428412760E+01  2.031596926434E+01
  2.000196451912E+01  1.967287107535E+01  1.932935186198E+01  1.897212944628E+01
  1.860198341076E+01  1.821974721526E+01  1.782630455105E+01  1.742258520072E+01
  1.700956042445E+01  1.658823790014E+01  1.615965625203E+01  1.572487920953E+01
  1.528498944462E+01  1.484108214271E+01  1.439425836764E+01  1.394561828711E+01
  1.349625432890E+01  1.304724434222E+01  1.259964484083E+01  1.215448440605E+01
  1.171275732800E+01  1.127541756201E+01  1.084337307495E+01  1.041748065198E+01
  9.998541229382E+00  9.587295812087E+00  9.184422027278E+00  8.790531356036E+00
  8.406167075387E+00  8.031802932223E+00  7.667842559130E+00  7.314619630267E+00
  6.972398743227E+00  6.641377000575E+00  6.321686252698E+00  6.013395951946E+00
  5.716516557078E+00  5.431003416975E+00  5.156761053711E+00  4.893647757716E+00
  4.641480675748E+00  4.400042073510E+00  4.169086128412E+00  3.948343963084E+00
  3.737531437806E+00  3.536358338611E+00  3.344530718256E+00  3.161752712872E+00
  2.987727574494E+00  2.822157286777E+00  2.664741828045E+00  2.515180387168E+00
  2.373173039894E+00  2.238421797310E+00  2.110631722692E+00  1.989511896975E+00
  1.874776272482E+00  1.766144417081E+00  1.663342155429E+00  1.566102113536E+00
  1.474164173030E+00  1.387275841522E+00  1.305192545406E+00  1.227677851340E+00
  1.154503622522E+00  1.085450115671E+00  1.020306024445E+00  9.588684747911E-01
  9.009429774576E-01  8.463433426434E-01  7.948915614864E-01  7.464176587953E-01
  7.007595211492E-01  6.577627041954E-01  6.172802226914E-01  5.791723265505E-01
  5.433062658740E-01  5.095560476861E-01  4.778021868247E-01  4.479314531949E-01
  4.198366173558E-01  3.934161961837E-01  3.685742001467E-01  3.452198835257E-01
  3.232674987323E-01  3.026360557031E-01  2.832490871928E-01  2.650344206407E-01
  2.479239571582E-01  2.318534580589E-01  2.167623392510E-01  2.025934737099E-01
  1.892930021673E-01  1.768101520742E-01  1.650970648304E-01  1.541086312153E-01
  1.438023349059E-01  1.341381039257E-01  1.250781698340E-01  1.165869344354E-01
  1.086308437695E-01  1.011782691195E-01  9.419939476803E-02  8.766611221879E-02
  8.155192059681E-02  7.583183293849E-02  7.048228808209E-02  6.548106787251E-02
  6.080721939831E-02  5.644098198463E-02  5.236371867326E-02  4.855785192870E-02
  4.500680331836E-02  4.169493692397E-02  3.860750625150E-02  3.573060441644E-02
  3.305111739196E-02  3.055668011716E-02  2.823563527344E-02  2.607699454670E-02
  2.407040220359E-02  2.220610081983E-02  2.047489900862E-02  1.886814100672E-02
  1.737767798570E-02  1.599584096456E-02  1.471541520971E-02  1.352961601654E-02
  1.243206577561E-02  1.141677223450E-02  1.047810787413E-02  9.610790325669E-03
  8.809863761049E-03  8.070681196463E-03  7.388887654145E-03  6.760404133146E-03
  6.181412344683E-03  5.648340172085E-03  5.157847819255E-03  4.706814615028E-03
  4.292326443826E-03  3.911663775601E-03  3.562290270307E-03  3.241841934001E-03
  2.948116805247E-03  2.679065151829E-03  2.432780158804E-03  2.207489089803E-03
  2.001544904212E-03  1.813418313356E-03  1.641690259316E-03  1.485044800303E-03
  1.342262386861E-03  1.212213513352E-03  1.093852729445E-03  9.862129964929E-04
  8.884003738964E-04  7.995890207564E-04  7.190164983282E-04  6.459793590417E-04
  5.798290081100E-04  5.199678240457E-04  4.658455247257E-04  4.169557659971E-04
  3.728329601974E-04  3.330493023650E-04  2.972119923493E-04  2.649606414728E-04
  2.359648528670E-04  2.099219650748E-04  1.865549489995E-04  1.656104487623E-04
  1.468569575180E-04  1.300831197531E-04  1.150961520658E-04  1.017203748793E-04
  8.979584798598E-05  7.917710324323E-05  6.973196814914E-05  6.134047441131E-05
  5.389384598790E-05  4.729356142377E-05  4.145048562776E-05  3.628406653940E-05
  3.172159241595E-05  2.769750573416E-05  2.415276994649E-05  2.103428556071E-05
  1.829435222455E-05  1.589017369645E-05  1.378340276867E-05  1.193972338349E-05
  1.032846734545E-05  8.922263186344E-06  7.696714883245E-06  6.630108266188E-06
  5.703143080734E-06  4.898688792415E-06  4.201562335878E-06  3.598326121501E-06
  3.077104716885E-06  2.627418720375E-06  2.240034438679E-06  1.906828071197E-06
  1.620663189894E-06  1.375280385643E-06  1.165198030124E-06  9.856231766024E-07
  8.323716934437E-07  7.017967910662E-07  5.907251662967E-07  4.964000479099E-07
  4.164304835155E-07  3.487462610566E-07  2.915579080591E-07  2.433212585371E-07
  2.027061211999E-07  1.685686234466E-07  1.399268436552E-07  1.159393796200E-07
  9.588653374731E-08  7.915382592424E-08  6.521757294210E-08  5.363229909705E-08
  4.401976624030E-08  3.605943321679E-08  2.948017443993E-08  2.405310541553E-08
  1.958537946448E-08  1.591483481412E-08  1.290538473838E-08  1.044305563263E-08
  8.432588909377E-09  6.794532491393E-09  5.462756550581E-09  4.382336078911E-09
  3.507749964510E-09  2.801352556552E-09  2.232079309036E-09  1.774353062165E-09
  1.407161912823E-09  1.113283496032E-09  8.786340180886E-10  6.917220680208E-10
  5.431985594112E-10  4.254607628497E-10  0.000000000000E+00  0.000000000000E+00
  0.000000000000E+00  0.000000000000E+00  0.000000000000E+00  0.000000000000E+00
  0.000000000000E+00  0.000000000000E+00  0.000000000000E+00  0.000000000000E+00
  0.000000000000E+00  0.000000000000E+00  0.000000000000E+00  0.000000000000E+00
  0.000000000000E+00  0.000000000000E+00  0.000000000000E+00  0.000000000000E+00
  0.000000000000E+00  0.000000000000E+00  0.000000000000E+00  0.000000000000E+00
  0.000000000000E+00  0.000000000000E+00  0.000000000000E+00  0.000000000000E+00
  0.000000000000E+00  0.000000000000E+00  0.000000000000E+00  0.000000000000E+00
  0.000000000000E+00  0.000000000000E+00  0.000000000000E+00  0.000000000000E+00
  0.000000000000E+00  0.000000000000E+00  0.000000000000E+00  0.000000000000E+00
  0.000000000000E+00  0.000000000000E+00  0.000000000000E+00  0.000000000000E+00
  0.000000000000E+00  0.000000000000E+00  0.000000000000E+00  0.000000000000E+00
  0.000000000000E+00  0.000000000000E+00  0.000000000000E+00  0.000000000000E+00
  0.000000000000E+00  0.000000000000E+00  0.000000000000E+00  0.000000000000E+00
  0.000000000000E+00  0.000000000000E+00  0.000000000000E+00  0.000000000000E+00
  0.000000000000E+00  0.000000000000E+00  0.000000000000E+00  0.000000000000E+00
  0.000000000000E+00  0.000000000000E+00  0.000000000000E+00  0.000000000000E+00
  0.000000000000E+00  0.000000000000E+00  0.000000000000E+00  0.000000000000E+00
  0.000000000000E+00  0.000000000000E+00  0.000000000000E+00  0.000000000000E+00
  0.000000000000E+00  0.000000000000E+00  0.000000000000E+00  0.000000000000E+00
  0.000000000000E+00  0.000000000000E+00  0.000000000000E+00  0.000000000000E+00
  0.000000000000E+00
</data>
</radfunc>
</valence-charge>
<pseudocore-charge matching-radius="0.634283882872"
 number-of-continuous-derivatives="4">
<annotation model-charge-form="Teter function with specified parameters" />
<radfunc>
<data npts="290">
  1.566319237261E+02  1.566115963137E+02  1.565488810891E+02  1.564450960776E+02
  1.563008549432E+02  1.561112914880E+02  1.558698570715E+02  1.555936163073E+02
  1.552832967939E+02  1.549217943315E+02  1.545148085595E+02  1.540730312259E+02
  1.535399359987E+02  1.529841289185E+02  1.523297302022E+02  1.516775545096E+02
  1.509282613960E+02  1.502196969762E+02  1.494250948600E+02  1.485345380697E+02
  1.475371087885E+02  1.466542033859E+02  1.456886070217E+02  1.446332013893E+02
  1.434803866877E+02  1.422220778722E+02  1.408497085623E+02  1.397401617440E+02
  1.385574072104E+02  1.372973377479E+02  1.359557271778E+02  1.345282460226E+02
  1.330104811944E+02  1.313979602512E+02  1.296861808026E+02  1.278706456815E+02
  1.259469045246E+02  1.239106024213E+02  1.224884500877E+02  1.210132033873E+02
  1.194837196243E+02  1.178989185328E+02  1.162577934419E+02  1.145594233115E+02
  1.128029856556E+02  1.109877703625E+02  1.091131944109E+02  1.071788174695E+02
  1.051843583570E+02  1.031297123211E+02  1.010149690784E+02  9.884043153743E+01
  9.660663510468E+01  9.431436744505E+01  9.196468854355E+01  8.955895088073E+01
  8.709881950189E+01  8.458629172259E+01  8.202371617429E+01  7.941381085248E+01
  7.675967978744E+01  7.406482791399E+01  7.133317367392E+01  6.856905884254E+01
  6.577725503226E+01  6.296296629100E+01  6.013182718562E+01  5.871181564664E+01
  5.728989574083E+01  5.586688878135E+01  5.444364059614E+01  5.302102076622E+01
  5.159992174944E+01  5.018125788569E+01  4.876596427917E+01  4.735499555419E+01
  4.594932448096E+01  4.454994046853E+01  4.315784792230E+01  4.177406446414E+01
  4.039961901402E+01  3.903554973219E+01  3.768290182236E+01  3.634272519666E+01
  3.501607200416E+01  3.370399402603E+01  3.240753994091E+01  3.112775246568E+01
  2.986566537759E+01  2.862230042536E+01  2.739866413771E+01  2.619574453951E+01
  2.501450778692E+01  2.385589473439E+01  2.272081744790E+01  2.161015568019E+01
  2.052475332522E+01  1.946541487076E+01  1.843290186910E+01  1.742792944757E+01
  1.645116288170E+01  1.550321425509E+01  1.458463923130E+01  1.369593396384E+01
  1.283753217137E+01  1.200980240563E+01  1.121304554024E+01  1.044749250856E+01
  9.713302318555E+00  9.010560372625E+00  8.339277119117E+00  7.699387061558E+00
  7.090748150021E+00  6.513141577248E+00  5.966271999944E+00  5.449768202986E+00
  4.963184221265E+00  4.506000930369E+00  4.077628113465E+00  3.677407007434E+00
  3.304613326677E+00  2.958460758011E+00  2.638104914811E+00  2.342647732984E+00
  2.071142285690E+00  1.822597987855E+00  1.595986155705E+00  1.390245880695E+00
  1.204290171632E+00  1.037012313366E+00  8.872923854625E-01  7.540038797775E-01
  6.360203519709E-01  5.322220388942E-01  4.415023715014E-01  3.627743116514E-01
  2.949764409449E-01  2.370787306875E-01  1.880879242502E-01  1.470524665673E-01
  1.130669202904E-01  8.527581421221E-02  6.287687694140E-02  4.512361739135E-02
  3.132722332879E-02  2.085775988013E-02  1.314466132749E-02  7.676521532870E-03
  4.000200656548E-03  1.719278207805E-03  4.918945785139E-04  2.803474532650E-05
  8.631845522701E-05  4.703706068353E-04  1.024853392685E-03  1.631247787711E-03
  2.203475905674E-03  2.683457397618E-03  3.036692296158E-03  3.247959450783E-03
  3.317213968825E-03  3.255758979073E-03  3.082756767076E-03  2.822132181277E-03
  2.499907552666E-03  2.141993660961E-03  1.772446034877E-03  1.412180656043E-03
  1.078128532292E-03  7.827952002800E-04  5.341795630222E-04  3.359970577748E-04
  1.881453877897E-04  8.734722603458E-05  2.790356059721E-05  2.493696654145E-06
  2.963192859833E-06  2.104886379777E-05  4.899994777770E-05  8.006601571409E-05
  1.088344810537E-04  1.314129067763E-04  1.454629304039E-04  1.501028235703E-04
  1.457038478256E-04  1.336111869716E-04  1.158230376717E-04  9.466134678619E-05
  7.246484336087E-05  5.132979166776E-05  3.291684830137E-05  1.833424864317E-05
  8.099071483667E-06  2.170346527992E-06  4.102783145454E-08  8.709706312745E-07
  3.640432784663E-06  7.303441905158E-06  1.092252474610E-05  1.377042673756E-05
  1.538997674606E-05  1.560944119489E-05  1.451676315048E-05  1.240123069426E-05
  9.674733376047E-06  6.786433110782E-06  4.144260789392E-06  2.054314275232E-06
  6.854156789723E-07  6.143649166371E-08  0.000000000000E+00  0.000000000000E+00
  0.000000000000E+00  0.000000000000E+00  0.000000000000E+00  0.000000000000E+00
  0.000000000000E+00  0.000000000000E+00  0.000000000000E+00  0.000000000000E+00
  0.000000000000E+00  0.000000000000E+00  0.000000000000E+00  0.000000000000E+00
  0.000000000000E+00  0.000000000000E+00  0.000000000000E+00  0.000000000000E+00
  0.000000000000E+00  0.000000000000E+00  0.000000000000E+00  0.000000000000E+00
  0.000000000000E+00  0.000000000000E+00  0.000000000000E+00  0.000000000000E+00
  0.000000000000E+00  0.000000000000E+00  0.000000000000E+00  0.000000000000E+00
  0.000000000000E+00  0.000000000000E+00  0.000000000000E+00  0.000000000000E+00
  0.000000000000E+00  0.000000000000E+00  0.000000000000E+00  0.000000000000E+00
  0.000000000000E+00  0.000000000000E+00  0.000000000000E+00  0.000000000000E+00
  0.000000000000E+00  0.000000000000E+00  0.000000000000E+00  0.000000000000E+00
  0.000000000000E+00  0.000000000000E+00  0.000000000000E+00  0.000000000000E+00
  0.000000000000E+00  0.000000000000E+00  0.000000000000E+00  0.000000000000E+00
  0.000000000000E+00  0.000000000000E+00  0.000000000000E+00  0.000000000000E+00
  0.000000000000E+00  0.000000000000E+00  0.000000000000E+00  0.000000000000E+00
  0.000000000000E+00  0.000000000000E+00  0.000000000000E+00  0.000000000000E+00
  0.000000000000E+00  0.000000000000E+00  0.000000000000E+00  0.000000000000E+00
  0.000000000000E+00  0.000000000000E+00  0.000000000000E+00  0.000000000000E+00
  0.000000000000E+00  0.000000000000E+00  0.000000000000E+00  0.000000000000E+00
  0.000000000000E+00  0.000000000000E+00
</data>
</radfunc>
</pseudocore-charge>
<semilocal-potentials set="scalar_relativistic">
<slps n="4" l="s" rc="1.41051599027" eref="-3.13281084461">
<radfunc>
<data npts="290">
 -2.651437710767E+00 -2.656136934111E+00 -2.670618087588E+00 -2.694558392061E+00
 -2.727783914743E+00 -2.771367036784E+00 -2.826741284169E+00 -2.889914264786E+00
 -2.960647230850E+00 -3.042736901937E+00 -3.134758499300E+00 -3.234174741301E+00
 -3.353492000869E+00 -3.477143560387E+00 -3.621758540339E+00 -3.764849085031E+00
 -3.927989193221E+00 -4.081038349651E+00 -4.251274912041E+00 -4.440337472322E+00
 -4.649948330998E+00 -4.833633666502E+00 -5.032555843075E+00 -5.247666477953E+00
 -5.479917523259E+00 -5.730248299232E+00 -5.999570201839E+00 -6.214547632010E+00
 -6.441037862955E+00 -6.679356795726E+00 -6.929788568729E+00 -7.192579473620E+00
 -7.467931533717E+00 -7.755995802753E+00 -8.056865456646E+00 -8.370568766014E+00
 -8.697062051749E+00 -9.036222739482E+00 -9.269268218971E+00 -9.507768873226E+00
 -9.751621593518E+00 -1.000070357640E+01 -1.025487165156E+01 -1.051396167829E+01
 -1.077778801815E+01 -1.104614309062E+01 -1.131879701791E+01 -1.159549736406E+01
 -1.187596897226E+01 -1.215991390323E+01 -1.244701147580E+01 -1.273691840949E+01
 -1.302926906704E+01 -1.332367579324E+01 -1.361972934452E+01 -1.391699940202E+01
 -1.421503515922E+01 -1.451336597335E+01 -1.481150206875E+01 -1.510893527859E+01
 -1.540513981073E+01 -1.569957302290E+01 -1.599167619172E+01 -1.628087526090E+01
 -1.656658155438E+01 -1.684819244176E+01 -1.712509194562E+01 -1.726157892104E+01
 -1.739665128364E+01 -1.753022851253E+01 -1.766222934204E+01 -1.779257177295E+01
 -1.792117308300E+01 -1.804794983671E+01 -1.817281789470E+01 -1.829569242280E+01
 -1.841648790125E+01 -1.853511813418E+01 -1.865149625993E+01 -1.876553476248E+01
 -1.887714548464E+01 -1.898623964345E+01 -1.909272784852E+01 -1.919652012385E+01
 -1.929752593405E+01 -1.939565421568E+01 -1.949081341457E+01 -1.958291153011E+01
 -1.967185616724E+01 -1.975755459737E+01 -1.983991382883E+01 -1.991884068790E+01
 -1.999424191113E+01 -2.006602424947E+01 -2.013409458477E+01 -2.019836005867E+01
 -2.025872821387E+01 -2.031510714712E+01 -2.036740567314E+01 -2.041553349804E+01
 -2.045940140049E+01 -2.049892141826E+01 -2.053400703768E+01 -2.056457338287E+01
 -2.059053740187E+01 -2.061181804640E+01 -2.062833644242E+01 -2.064001604930E+01
 -2.064678280548E+01 -2.064856526033E+01 -2.064529469216E+01 -2.063690521418E+01
 -2.062333387117E+01 -2.060452073097E+01 -2.058040897583E+01 -2.055094499960E+01
 -2.051607851686E+01 -2.047576269056E+01 -2.042995428391E+01 -2.037861384187E+01
 -2.032170590627E+01 -2.025919926743E+01 -2.019106725376E+01 -2.011728805923E+01
 -2.003784510738E+01 -1.995272744934E+01 -1.986193019226E+01 -1.976545495395E+01
 -1.966331033891E+01 -1.955551243109E+01 -1.944208529857E+01 -1.932306150594E+01
 -1.919848263107E+01 -1.906839978370E+01 -1.893287412509E+01 -1.879197738907E+01
 -1.864579240732E+01 -1.849441364315E+01 -1.833794774087E+01 -1.817651409951E+01
 -1.801024548263E+01 -1.783928867739E+01 -1.766380521905E+01 -1.748397219847E+01
 -1.729998317236E+01 -1.711204919795E+01 -1.692040001525E+01 -1.672528540165E+01
 -1.652697672542E+01 -1.632576872528E+01 -1.612198154488E+01 -1.591596305055E+01
 -1.570809146076E+01 -1.549877831349E+01 -1.528847179414E+01 -1.507766044047E+01