<?xml version="1.0" encoding="UTF-8" ?>
<psml version="1.1" energy_unit="hartree" length_unit="bohr"
 uuid="c5c8be50-1d65-11e8-4984-a74caebc5dde"
 xmlns="http://esl.cecam.org/PSML/ns/1.1">
<provenance creator="ONCVPSP-3.3.0+psml-3.3.0-73 (scalar-relativistic)"
 date="2018-03-01">
<annotation action="semilocal-pseudopotential-generation"
 action-cont="projectors-generation" />
<input-file name="oncvpsp-input">
<![CDATA[# atsym z nc nv iexc psfile
Tc 43 6 4 -116133 upf
# n l f
1 0 2.0
2 0 2.0
2 1 6.0
3 0 2.0
3 1 6.0
3 2 10.0
4 0 2.0
4 1 6.0
4 2 5.0
5 0 2.0
# lmax
2
# l rc ep ncon nbas qcut
0 1.4 0.0 4 8 8.4
1 1.4 0.0 4 8 9.0
2 1.35 0.0 4 8 9.2
# lloc lpopt rc5 dvloc0
4 5 1.2 0.0
# l nproj debl
0 2 1.0
1 2 2.0
2 2 1.5
# icmod fcfact rcfact
3 5.0 1.28
# epsh1 epsh2 depsh
-12.0 12.0 0.02
# rlmax drl
6.0 0.01
 0
]]>
</input-file>
</provenance>
<pseudo-atom-spec atomic-label="Tc" atomic-number="43" z-pseudo="15"
 flavor="Hamann&apos;s oncvpsp" relativity="scalar" spin-dft="no"
 core-corrections="yes">
<annotation pseudo-energy="-80.7256628126" />
<exchange-correlation>
<annotation oncvpsp-xc-code="-116133" oncvpsp-xc-type="libxc-interface" />
<libxc-info number-of-functionals="2">
<functional name="Perdew, Burke &amp; Ernzerhof SOL (GGA)" type="exchange"
 id="116" />
<functional name="Perdew, Burke &amp; Ernzerhof SOL (GGA)" type="correlation"
 id="133" />
</libxc-info>
</exchange-correlation>
<valence-configuration total-valence-charge="15">
<shell n="4" l="s" occupation="2" />
<shell n="4" l="p" occupation="6" />
<shell n="4" l="d" occupation="5" />
<shell n="5" l="s" occupation="2" />
</valence-configuration>
</pseudo-atom-spec>
<grid npts="457">
<annotation type="sampled from oncvpsp log grid"
 recipe="r(i:1..N) = r1*exp(a*(i-1)) + r=0; resampled"
 recipe-cont="r1: scale; a: step" scale="0.116279069767E-04"
 step="0.119285708653E-01" delta="0.500000000000E-02" rmax="44.1318799948" />
<grid-data>
  0.000000000000E+00  5.039441559062E-03  1.006588903305E-02  1.510043866069E-02
  2.010582340092E-02  2.522037856629E-02  3.052388447908E-02  3.564400236410E-02
  4.112942271229E-02  4.634018239958E-02  5.159199851370E-02  5.675791737359E-02
  6.244110089536E-02  6.787879734231E-02  7.291505605902E-02  7.832497934927E-02
  8.413629120847E-02  8.930708755962E-02  9.479566752734E-02  1.006215612614E-01
  1.068054991833E-01  1.120251835497E-01  1.174999587597E-01  1.232422913408E-01
  1.292652570711E-01  1.355825707545E-01  1.422086174500E-01  1.473898075375E-01
  1.527597676953E-01  1.583253755208E-01  1.640937591880E-01  1.700723065768E-01
  1.762686747350E-01  1.826907996852E-01  1.893469065890E-01  1.962455202813E-01
  2.033954761885E-01  2.108059316443E-01  2.158956300580E-01  2.211082141501E-01
  2.264466508725E-01  2.319139788112E-01  2.375133099156E-01  2.432478312702E-01
  2.491208069084E-01  2.551355796704E-01  2.612955731059E-01  2.676042934230E-01
  2.740653314834E-01  2.806823648468E-01  2.874591598636E-01  2.943995738194E-01
  3.015075571297E-01  3.087871555890E-01  3.162425126735E-01  3.238778718995E-01
  3.316975792387E-01  3.397060855918E-01  3.479079493223E-01  3.563078388508E-01
  3.649105353120E-01  3.737209352766E-01  3.827440535379E-01  3.919850259665E-01
  4.014491124334E-01  4.111416998040E-01  4.210683050041E-01  4.261211246641E-01
  4.312345781601E-01  4.364093930980E-01  4.416463058152E-01  4.469460614850E-01
  4.523094142228E-01  4.577371271935E-01  4.632299727198E-01  4.687887323924E-01
  4.744141971812E-01  4.801071675473E-01  4.858684535579E-01  4.916988750006E-01
  4.975992615006E-01  5.035704526386E-01  5.096132980703E-01  5.157286576471E-01
  5.219174015389E-01  5.281804103573E-01  5.345185752816E-01  5.409327981850E-01
  5.474239917632E-01  5.539930796644E-01  5.606409966204E-01  5.673686885798E-01
  5.741771128428E-01  5.810672381969E-01  5.880400450552E-01  5.950965255959E-01
  6.022376839031E-01  6.094645361099E-01  6.167781105432E-01  6.241794478697E-01
  6.316696012442E-01  6.392496364591E-01  6.469206320966E-01  6.546836796818E-01
  6.625398838379E-01  6.704903624440E-01  6.785362467933E-01  6.866786817549E-01
  6.949188259359E-01  7.032578518471E-01  7.116969460693E-01  7.202373094221E-01
  7.288801571352E-01  7.376267190208E-01  7.464782396491E-01  7.554359785249E-01
  7.645012102672E-01  7.736752247904E-01  7.829593274879E-01  7.923548394177E-01
  8.018630974907E-01  8.114854546606E-01  8.212232801165E-01  8.310779594779E-01
  8.410508949917E-01  8.511435057316E-01  8.613572278003E-01  8.716935145340E-01
  8.821538367084E-01  8.927396827489E-01  9.034525589418E-01  9.142939896491E-01
  9.252655175249E-01  9.363687037352E-01  9.476051281801E-01  9.589763897182E-01
  9.704841063948E-01  9.821299156716E-01  9.939154746596E-01  1.005842460356E+00
  1.017912569880E+00  1.030127520718E+00  1.042489050967E+00  1.054998919579E+00
  1.067658906614E+00  1.080470813493E+00  1.093436463255E+00  1.106557700814E+00
  1.119836393224E+00  1.133274429942E+00  1.146873723102E+00  1.160636207779E+00
  1.174563842272E+00  1.188658608379E+00  1.202922511680E+00  1.217357581820E+00
  1.231965872802E+00  1.246749463276E+00  1.261710456835E+00  1.276850982317E+00
  1.292173194105E+00  1.307679272434E+00  1.323371423703E+00  1.339251880788E+00
  1.355322903357E+00  1.371586778197E+00  1.388045819536E+00  1.404702369370E+00
  1.421558797803E+00  1.438617503376E+00  1.455880913417E+00  1.473351484378E+00
  1.491031702190E+00  1.508924082617E+00  1.527031171608E+00  1.545355545667E+00
  1.563899812215E+00  1.582666609962E+00  1.601658609281E+00  1.620878512593E+00
  1.640329054744E+00  1.660013003401E+00  1.679933159442E+00  1.700092357355E+00
  1.720493465643E+00  1.741139387231E+00  1.762033059878E+00  1.783177456596E+00
  1.804575586075E+00  1.826230493108E+00  1.848145259026E+00  1.870323002134E+00
  1.892766878160E+00  1.915480080697E+00  1.938465841666E+00  1.961727431766E+00
  1.985268160947E+00  2.009091378878E+00  2.033200475425E+00  2.057598881130E+00
  2.082290067704E+00  2.107277548516E+00  2.132564879098E+00  2.158155657647E+00
  2.184053525539E+00  2.210262167846E+00  2.236785313860E+00  2.263626737626E+00
  2.290790258478E+00  2.318279741579E+00  2.346099098478E+00  2.374252287660E+00
  2.402743315112E+00  2.431576234893E+00  2.460755149712E+00  2.490284211509E+00
  2.520167622047E+00  2.550409633511E+00  2.581014549113E+00  2.611986723703E+00
  2.643330564387E+00  2.675050531160E+00  2.707151137534E+00  2.739636951184E+00
  2.772512594598E+00  2.805782745734E+00  2.839452138682E+00  2.873525564347E+00
  2.908007871119E+00  2.942903965572E+00  2.978218813159E+00  3.013957438917E+00
  3.050124928184E+00  3.086726427322E+00  3.123767144450E+00  3.161252350183E+00
  3.199187378386E+00  3.237577626926E+00  3.276428558449E+00  3.315745701151E+00
  3.355534649564E+00  3.395801065359E+00  3.436550678144E+00  3.477789286281E+00
  3.519522757717E+00  3.561757030809E+00  3.604498115179E+00  3.647752092561E+00
  3.691525117672E+00  3.735823419084E+00  3.780653300113E+00  3.826021139714E+00
  3.871933393391E+00  3.918396594112E+00  3.965417353241E+00  4.013002361480E+00
  4.061158389818E+00  4.109892290495E+00  4.159210997981E+00  4.209121529957E+00
  4.259630988317E+00  4.310746560176E+00  4.362475518898E+00  4.414825225125E+00
  4.467803127827E+00  4.521416765361E+00  4.575673766545E+00  4.630581851744E+00
  4.686148833964E+00  4.742382619972E+00  4.799291211412E+00  4.856882705949E+00
  4.915165298420E+00  4.974147282001E+00  5.033837049385E+00  5.094243093978E+00
  5.155374011105E+00  5.217238499239E+00  5.279845361230E+00  5.343203505564E+00
  5.407321947631E+00  5.472209811003E+00  5.537876328735E+00  5.604330844679E+00
  5.671582814816E+00  5.739641808593E+00  5.808517510297E+00  5.878219720420E+00
  5.948758357065E+00  6.020143457350E+00  6.092385178838E+00  6.165493800984E+00
  6.239479726596E+00  6.314353483315E+00  6.390125725115E+00  6.466807233816E+00
  6.544408920622E+00  6.622941827670E+00  6.702417129602E+00  6.782846135157E+00
  6.864240288779E+00  6.946611172244E+00  7.029970506311E+00  7.114330152387E+00
  7.199702114215E+00  7.286098539586E+00  7.373531722061E+00  7.462014102726E+00
  7.551558271958E+00  7.642176971222E+00  7.733883094877E+00  7.826689692015E+00
  7.920609968319E+00  8.015657287939E+00  8.111845175394E+00  8.209187317499E+00
  8.307697565309E+00  8.407389936093E+00  8.508278615326E+00  8.610377958710E+00
  8.713702494214E+00  8.818266924145E+00  8.924086127235E+00  9.031175160761E+00
  9.139549262691E+00  9.249223853843E+00  9.360214540089E+00  9.472537114570E+00
  9.586207559945E+00  9.701242050664E+00  9.817656955272E+00  9.935468838736E+00
  1.005469446480E+01  1.017535079838E+01  1.029745500796E+01  1.042102446805E+01
  1.054607676167E+01  1.067262968281E+01  1.080070123900E+01  1.093030965387E+01
  1.106147336972E+01  1.119421105016E+01  1.132854158276E+01  1.146448408175E+01
  1.160205789073E+01  1.174128258542E+01  1.188217797645E+01  1.202476411216E+01
  1.216906128151E+01  1.231509001689E+01  1.246287109709E+01  1.261242555025E+01
  1.276377465686E+01  1.291693995274E+01  1.307194323217E+01  1.322880655096E+01
  1.338755222957E+01  1.354820285633E+01  1.371078129060E+01  1.387531066609E+01
  1.404181439408E+01  1.421031616681E+01  1.438083996081E+01  1.455341004034E+01
  1.472805096083E+01  1.490478757236E+01  1.508364502322E+01  1.526464876350E+01
  1.544782454866E+01  1.563319844325E+01  1.582079682457E+01  1.601064638646E+01
  1.620277414310E+01  1.639720743282E+01  1.659397392201E+01  1.679310160908E+01
  1.699461882838E+01  1.719855425432E+01  1.740493690538E+01  1.761379614824E+01
  1.782516170202E+01  1.803906364244E+01  1.825553240615E+01  1.847459879503E+01
  1.869629398057E+01  1.892064950833E+01  1.914769730243E+01  1.937746967006E+01
  1.960999930610E+01  1.984531929778E+01  2.008346312935E+01  2.032446468690E+01
  2.056835826315E+01  2.081517856230E+01  2.106496070505E+01  2.131774023351E+01
  2.157355311631E+01  2.183243575371E+01  2.209442498275E+01  2.235955808255E+01
  2.262787277954E+01  2.289940725289E+01  2.317420013993E+01  2.345229054161E+01
  2.373371802811E+01  2.401852264444E+01  2.430674491618E+01  2.459842585517E+01
  2.489360696543E+01  2.519233024902E+01  2.549463821201E+01  2.580057387055E+01
  2.611018075700E+01  2.642350292608E+01  2.674058496119E+01  2.706147198073E+01
  2.738620964450E+01  2.771484416023E+01  2.804742229015E+01  2.838399135764E+01
  2.872459925393E+01  2.906929444497E+01  2.941812597831E+01  2.977114349005E+01
  3.012839721193E+01  3.048993797848E+01  3.085581723422E+01  3.122608704103E+01
  3.160080008552E+01  3.198000968655E+01  3.236376980279E+01  3.275213504042E+01
  3.314516066091E+01  3.354290258884E+01  3.394541741990E+01  3.435276242894E+01
  3.476499557809E+01  3.518217552503E+01  3.560436163133E+01  3.603161397090E+01
  3.646399333855E+01  3.690156125862E+01  3.734437999372E+01  3.779251255364E+01
  3.824602270429E+01  3.870497497674E+01  3.916943467646E+01  3.963946789258E+01
  4.011514150729E+01  4.059652320537E+01  4.108368148384E+01  4.157668566165E+01
  4.207560588959E+01  4.258051316026E+01  4.309147931818E+01  4.360857707000E+01
  4.413187999484E+01
</grid-data>
</grid>
<valence-charge total-charge="15" is-unscreening-charge="yes"
 rescaled-to-z-pseudo="no">
<radfunc>
<data npts="457">
  1.063521021551E-01  1.069597410561E-01  1.087772124545E-01  1.118128306556E-01
  1.160405518681E-01  1.216122518781E-01  1.287342090988E-01  1.369182146936E-01
  1.471250231748E-01  1.582133175032E-01  1.707775612048E-01  1.845130729068E-01
  2.012229511704E-01  2.188026980109E-01  2.364947730414E-01  2.570347324671E-01
  2.809007703837E-01  3.037339636272E-01  3.296471369197E-01  3.590781346789E-01
  3.925319256940E-01  4.225803560327E-01  4.559149349543E-01  4.929179833024E-01
  5.340196822423E-01  5.797043639787E-01  6.305175869856E-01  6.723600510684E-01
  7.177191678194E-01  7.669095442812E-01  8.202751758758E-01  8.781920642023E-01
  9.410709903810E-01  1.009360428012E+00  1.083549570450E+00  1.164171435229E+00
  1.251805993531E+00  1.347083254139E+00  1.415182389580E+00  1.487196700442E+00
  1.563353516565E+00  1.643891750174E+00  1.729062102693E+00  1.819127197930E+00
  1.914361625082E+00  2.015051872792E+00  2.121496132959E+00  2.234003950336E+00
  2.352895691124E+00  2.478501800681E+00  2.611161817366E+00  2.751223106232E+00
  2.899039273014E+00  3.054968215592E+00  3.219369766971E+00  3.392602880966E+00
  3.575022309303E+00  3.766974716960E+00  3.968794181489E+00  4.180797022034E+00
  4.403275905090E+00  4.636493177041E+00  4.880673378639E+00  5.135994904149E+00
  5.402580778456E+00  5.680488539413E+00  5.969699230706E+00  6.118513431014E+00
  6.270105532912E+00  6.424446234841E+00  6.581499087849E+00  6.741220061908E+00
  6.903557104081E+00  7.068449689955E+00  7.235828369950E+00  7.405614312328E+00
  7.577718844960E+00  7.752042998099E+00  7.928477050692E+00  8.106900082992E+00
  8.287179538467E+00  8.469170798316E+00  8.652716772110E+00  8.837647508397E+00
  9.023779829335E+00  9.210916993719E+00  9.398848393011E+00  9.587349285227E+00
  9.776180571797E+00  9.965088622718E+00  1.015380515553E+01  1.034204717380E+01
  1.052951697101E+01  1.071590220572E+01  1.090087605411E+01  1.108409744589E+01
  1.126521138958E+01  1.144384939306E+01  1.161962998516E+01  1.179215934364E+01
  1.196103203501E+01  1.212583187060E+01  1.228613288343E+01  1.244150042945E+01
  1.259149241603E+01  1.273566066005E+01  1.287355237672E+01  1.300471179943E+01
  1.312868192968E+01  1.324500641510E+01  1.335323155194E+01  1.345290840724E+01
  1.354359505417E+01  1.362485891255E+01  1.369627918474E+01  1.375744937543E+01
  1.380797988205E+01  1.384750064071E+01  1.387566381077E+01  1.389214647921E+01
  1.389665336464E+01  1.388891949847E+01  1.386871285998E+01  1.383583693986E+01
  1.379013320618E+01  1.373148344532E+01  1.365981194977E+01  1.357508752418E+01
  1.347732528084E+01  1.336658819594E+01  1.324298839843E+01  1.310668816428E+01
  1.295790059033E+01  1.279688992354E+01  1.262397152399E+01  1.243951144241E+01
  1.224392559628E+01  1.203767853246E+01  1.182128176783E+01  1.159529170449E+01
  1.136030712057E+01  1.111696624308E+01  1.086594341477E+01  1.060794537246E+01
  1.034370716057E+01  1.007398770911E+01  9.799565111520E+00  9.521231643403E+00
  9.239788568579E+00  8.956040784110E+00  8.670791360253E+00  8.384836035236E+00
  8.098957727683E+00  7.813921131540E+00  7.530467459251E+00  7.249309398656E+00
  6.971126347595E+00  6.696559987646E+00  6.426210254445E+00  6.160631756202E+00
  5.900330685198E+00  5.645762259530E+00  5.397328724035E+00  5.155377930592E+00
  4.920202509173E+00  4.692039512669E+00  4.471070155060E+00  4.257419999437E+00
  4.051162275962E+00  3.852327582299E+00  3.660916075355E+00  3.476901031377E+00
  3.300229543872E+00  3.130825352114E+00  2.968590861184E+00  2.813409248033E+00
  2.665146505214E+00  2.523653424072E+00  2.388767508915E+00  2.260314814850E+00
  2.138111703156E+00  2.021966509215E+00  1.911681119050E+00  1.807052451582E+00
  1.707873844639E+00  1.613936343663E+00  1.525029892857E+00  1.440944429294E+00
  1.361470881176E+00  1.286402072047E+00  1.215533533322E+00  1.148664227953E+00
  1.085597188494E+00  1.026140073142E+00  9.701056436505E-01  9.173121692192E-01
  8.675837606943E-01  8.207506392778E-01  7.766493446273E-01  7.351228864599E-01
  6.960208443412E-01  6.591994200626E-01  6.245214469597E-01  5.918563604070E-01
  5.610801335896E-01  5.320751824850E-01  5.047302438173E-01  4.789402295490E-01
  4.546060612813E-01  4.316344877241E-01  4.099378881897E-01  3.894340648539E-01
  3.700460263212E-01  3.517017648228E-01  3.343340291796E-01  3.178800954634E-01
  3.022815371031E-01  2.874839960009E-01  2.734369560476E-01  2.600935202601E-01
  2.474101926077E-01  2.353466654413E-01  2.238656132995E-01  2.129324937333E-01
  2.025153556690E-01  1.925846557121E-01  1.831130826945E-01  1.740753906673E-01
  1.654482404593E-01  1.572100498412E-01  1.493408522672E-01  1.418221641072E-01
  1.346368602264E-01  1.277690577284E-01  1.212040076363E-01  1.149279942563E-01
  1.089282419419E-01  1.031928289566E-01  9.771060811827E-02  9.247113389550E-02
  8.746459562117E-02  8.268175648373E-02  7.811389795659E-02  7.375276932807E-02
  6.959054199934E-02  6.561976822416E-02  6.183334397293E-02  5.822447561383E-02
  5.478665011491E-02  5.151360848430E-02  4.839932217887E-02  4.543797222653E-02
  4.262393082277E-02  3.995174517761E-02  3.741612340553E-02  3.501192226731E-02
  3.273413658870E-02  3.057789019678E-02  2.853842822339E-02  2.661111068214E-02
  2.479140712659E-02  2.307489236021E-02  2.145724306333E-02  1.993423525532E-02
  1.850174250830E-02  1.715573483204E-02  1.589227815174E-02  1.470753430060E-02
  1.359776144939E-02  1.255931489362E-02  1.158864811943E-02  1.068231406814E-02
  9.836966521498E-03  9.049361530754E-03  8.316358817231E-03  7.634923076361E-03
  7.002125123955E-03  6.415142830807E-03  5.871261800238E-03  5.367875752193E-03
  4.902486586825E-03  4.472704109743E-03  4.076245410033E-03  3.710933890509E-03
  3.374697957178E-03  3.065569381576E-03  2.781681355197E-03  2.521266259848E-03
  2.282653181234E-03  2.064265195601E-03  1.864616460801E-03  1.682309143858E-03
  1.516030217008E-03  1.364548153525E-03  1.226709553311E-03  1.101435726551E-03
  9.877192616858E-04  8.846206016135E-04  7.912646495972E-04  7.068374237840E-04
  6.305827766719E-04  5.617991933319E-04  4.998366797553E-04  4.440937503955E-04
  3.940145218395E-04  3.490859176074E-04  3.088349873456E-04  2.728263421718E-04
  2.406597066350E-04  2.119675866757E-04  1.864130520977E-04  1.636876313693E-04
  1.435093160515E-04  1.256206717704E-04  1.097870523977E-04  9.579491394513E-05
  8.345022460523E-05  7.257696735160E-05  6.301573153667E-05  5.462238997838E-05
  4.726685809478E-05  4.083193172045E-05  3.521220031442E-05  3.031303234038E-05
  2.604962966565E-05  2.234614788335E-05  1.913487951441E-05  1.635549709235E-05
  1.395435317639E-05  1.188383438009E-05  1.010176654364E-05  8.570868221766E-06
  7.258249706782E-06  6.134954858373E-06  5.175543070647E-06  4.357708771883E-06
  3.661935924536E-06  3.071185071911E-06  2.570610563254E-06  2.147305680270E-06
  1.790073484510E-06  1.489221305838E-06  1.236376896290E-06  1.024324380097E-06
  8.468582385212E-07  6.986536763521E-07  5.751518246376E-07  4.724583405238E-07
  3.872540692308E-07  3.167165344974E-07  2.584511217008E-07  2.104309118176E-07
  1.709442140414E-07  1.385489299229E-07  1.120329621338E-07  9.037995625450E-08
  7.273973428951E-08  5.840284393499E-08  4.677870802895E-08  3.737691421886E-08
  2.979123584073E-08  2.368602150498E-08  1.878463313996E-08  1.485965048455E-08
  1.172459449029E-08  9.226953041189E-09  7.242320078286E-09  5.669483878858E-09
  4.426322132502E-09  3.446380819072E-09  2.676030956114E-09  2.072112265505E-09
  1.599985917326E-09  1.231929937465E-09  9.458207942976E-10  7.240532758637E-10
  5.526581852304E-10  4.205837579901E-10  3.191121690702E-10  2.413871607755E-10
  1.820327932660E-10  1.368466845252E-10  1.025539511988E-10  7.661045698106E-11
  5.704598540824E-11  4.233963497335E-11  3.132113595054E-11  2.309294954866E-11
  1.690344778663E-11  1.238072701064E-11  9.036785476019E-12  6.572961568451E-12
  4.763976321515E-12  3.440498116009E-12  2.475699289612E-12  1.774927690401E-12
  1.267800058139E-12  9.021714502708E-13  6.395525492624E-13  4.516402264596E-13
  3.177008373993E-13  2.226041949968E-13  1.553521245343E-13  1.079814824616E-13
  7.474957356234E-14  5.153168525390E-14  3.537730506892E-14  2.418456268019E-14
  1.646238931074E-14  1.115748749725E-14  7.528983774549E-15  5.058013068784E-15
  3.382782759223E-15  2.252140621426E-15  1.492521190912E-15  9.845214846170E-16
  6.463762204325E-16  4.223539110332E-16  2.746463571094E-16  1.777265187595E-16
  1.144422225500E-16  7.332469614886E-17  4.674317070384E-17  2.964583079853E-17
  1.870509754957E-17  1.174032811401E-17  7.329883647549E-18  4.551796835104E-18
  2.811315709865E-18  1.726827718342E-18  1.054805492676E-18  6.406941011439E-19
  3.869498482755E-19  2.323563440352E-19  1.387139740408E-19  8.232301791745E-20
  4.856539632670E-20  2.847777143350E-20  1.659689771931E-20  9.612973703461E-21
  5.533070286976E-21  3.164604930134E-21  1.798392898283E-21  1.015378353743E-21
  5.695285845880E-22  3.173314264264E-22  1.756247606364E-22  9.653797603672E-23
  5.270046310434E-23  2.856924224476E-23  0.000000000000E+00  0.000000000000E+00
  0.000000000000E+00  0.000000000000E+00  0.000000000000E+00  0.000000000000E+00
  0.000000000000E+00
</data>
</radfunc>
</valence-charge>
<pseudocore-charge matching-radius="0.720237309422"
 number-of-continuous-derivatives="4">
<annotation model-charge-form="Teter function with specified parameters" />
<radfunc>
<data npts="290">
  6.895736075322E+01  6.895085092280E+01  6.893139196215E+01  6.889893143593E+01
  6.885380786432E+01  6.879448873000E+01  6.871890956882E+01  6.863239557096E+01
  6.852499529684E+01  6.840893607736E+01  6.827819179323E+01  6.813617111876E+01
  6.796465539342E+01  6.778567039328E+01  6.760701755488E+01  6.740141889816E+01
  6.716490725465E+01  6.694095785582E+01  6.668947359408E+01  6.640718820154E+01
  6.609047996076E+01  6.580964985548E+01  6.550199088188E+01  6.516508164154E+01
  6.479631190409E+01  6.439287429600E+01  6.395175716746E+01  6.359426225082E+01
  6.321232732613E+01  6.280444711809E+01  6.236904911144E+01  6.190449471843E+01
  6.140908132520E+01  6.088104536990E+01  6.031856662243E+01  5.971977385436E+01
  5.908275210566E+01  5.840555177369E+01  5.793078966143E+01  5.743670596390E+01
  5.692271299005E+01  5.638822537642E+01  5.583266264718E+01  5.525545205295E+01
  5.465603170561E+01  5.403385402570E+01  5.338838951893E+01  5.271913089713E+01
  5.202559755790E+01  5.130734043575E+01  5.056394723499E+01  4.979504805244E+01
  4.900032139441E+01  4.817950058847E+01  4.733238058582E+01  4.645882514428E+01
  4.555877437554E+01  4.463225263249E+01  4.367937670373E+01  4.270036427292E+01
  4.169554258880E+01  4.066535728018E+01  3.961038123613E+01  3.853132345693E+01
  3.742903776543E+01  3.630453125133E+01  3.515897230294E+01  3.457870924170E+01
  3.399369806230E+01  3.340413337434E+01  3.281022112055E+01  3.221217873005E+01
  3.161023525136E+01  3.100463146327E+01  3.039561996159E+01  2.978346521974E+01
  2.916844362120E+01  2.855084346162E+01  2.793096491848E+01  2.730911998610E+01
  2.668563237390E+01  2.606083736551E+01  2.543508163676E+01  2.480872303018E+01
  2.418213028400E+01  2.355568271344E+01  2.292976984235E+01  2.230479098325E+01
  2.168115476380E+01  2.105927859823E+01  2.043958810194E+01  1.982251644807E+01
  1.920850366480E+01  1.859799587244E+01  1.799144445960E+01  1.738930519823E+01
  1.679203729720E+01  1.620010239497E+01  1.561396349182E+01  1.503408382293E+01
  1.446092567365E+01  1.389494913910E+01  1.333661083066E+01  1.278636253225E+01
  1.224464981023E+01  1.171191058096E+01  1.118857364101E+01  1.067505716523E+01
  1.017176717907E+01  9.679096011651E+00  9.197420737060E+00  8.727101611905E+00
  8.268480517798E+00  7.821879418038E+00  7.387598838388E+00  6.965916382367E+00
  6.557085292008E+00  6.161333065465E+00  5.778860143255E+00  5.409838675206E+00
  5.054411380412E+00  4.712690512593E+00  4.384756943265E+00  4.070659374981E+00
  3.770413696653E+00  3.484002492517E+00  3.211374715754E+00  2.952445537021E+00
  2.707096377222E+00  2.475175132758E+00  2.256496600209E+00  2.050843105922E+00
  1.857965344353E+00  1.677583427159E+00  1.509388143064E+00  1.353042426367E+00
  1.208183029672E+00  1.074422394025E+00  9.513507071510E-01  8.385381379287E-01
  7.355372326559E-01  6.418854561049E-01  5.571078578439E-01  4.807198418946E-01
  4.122300155364E-01  3.511430910102E-01  2.969628120714E-01  2.491948758497E-01
  2.073498193428E-01  1.709458391455E-01  1.395115127613E-01  1.125883900742E-01
  8.973342433456E-02  7.052121334424E-02  5.454602343198E-02  4.142357129863E-02
  3.079254186619E-02  2.231582386536E-02  1.568144900055E-02  1.060322508372E-02
  6.821058454450E-03  4.100966215805E-03  2.234784207684E-03  1.039582093798E-03
  3.568023255308E-04  5.114492676870E-05  9.224875341272E-06  1.380331943704E-04
  3.632365704648E-04  6.273532539842E-04  8.878450529951E-04  1.115166310598E-03
  1.290810784166E-03  1.405396284376E-03  1.456824776276E-03  1.448552426665E-03
  1.387999874554E-03  1.285127917783E-03  1.151198001578E-03  9.977305524097E-04
  8.356675419276E-04  6.747389332330E-04  5.230261111650E-04  3.867092885630E-04
  2.699804612073E-04  1.750989828270E-04  1.025634407608E-04  5.137137800912E-05
  1.933761641129E-05  3.442510643653E-06  1.833551881185E-07  5.905256237743E-06
  1.709187933469E-05  3.060134282655E-05  4.383785088905E-05  5.485512107613E-05
  6.239292276850E-05  6.585277901302E-05  6.522280455285E-05  6.096452382395E-05
  5.387617691199E-05  4.494741187364E-05  3.521940953461E-05  2.566252118521E-05
  1.708063955383E-05  1.004806099168E-05  4.880872336026E-06  1.641268002208E-06
  1.700146628627E-07  1.398264896348E-07  1.120908068475E-06  2.649476756062E-06
  4.290687479037E-06  5.688930023503E-06  6.600726645062E-06  6.908122338241E-06
  6.613184400987E-06  5.816664962517E-06  4.685727224391E-06  3.416675248969E-06
  2.198755026075E-06  1.184338111595E-06  4.693122125204E-07  8.554453313148E-08
  0.000000000000E+00  0.000000000000E+00  0.000000000000E+00  0.000000000000E+00
  0.000000000000E+00  0.000000000000E+00  0.000000000000E+00  0.000000000000E+00
  0.000000000000E+00  0.000000000000E+00  0.000000000000E+00  0.000000000000E+00
  0.000000000000E+00  0.000000000000E+00  0.000000000000E+00  0.000000000000E+00
  0.000000000000E+00  0.000000000000E+00  0.000000000000E+00  0.000000000000E+00
  0.000000000000E+00  0.000000000000E+00  0.000000000000E+00  0.000000000000E+00
  0.000000000000E+00  0.000000000000E+00  0.000000000000E+00  0.000000000000E+00
  0.000000000000E+00  0.000000000000E+00  0.000000000000E+00  0.000000000000E+00
  0.000000000000E+00  0.000000000000E+00  0.000000000000E+00  0.000000000000E+00
  0.000000000000E+00  0.000000000000E+00  0.000000000000E+00  0.000000000000E+00
  0.000000000000E+00  0.000000000000E+00  0.000000000000E+00  0.000000000000E+00
  0.000000000000E+00  0.000000000000E+00  0.000000000000E+00  0.000000000000E+00
  0.000000000000E+00  0.000000000000E+00  0.000000000000E+00  0.000000000000E+00
  0.000000000000E+00  0.000000000000E+00  0.000000000000E+00  0.000000000000E+00
  0.000000000000E+00  0.000000000000E+00  0.000000000000E+00  0.000000000000E+00
  0.000000000000E+00  0.000000000000E+00  0.000000000000E+00  0.000000000000E+00
  0.000000000000E+00  0.000000000000E+00
</data>
</radfunc>
</pseudocore-charge>
<semilocal-potentials set="scalar_relativistic">
<slps n="4" l="s" rc="1.40470236937" eref="-2.69432342471">
<radfunc>
<data npts="290">
  5.733456765780E+01  5.728243523146E+01  5.712697014737E+01  5.686885248356E+01
  5.651255750492E+01  5.604857217807E+01  5.546452382786E+01  5.480557655841E+01
  5.400146776861E+01  5.314939874027E+01  5.220986703624E+01  5.121292700522E+01
  5.004051655337E+01  4.885238845321E+01  4.770090952727E+01  4.641642745594E+01
  4.499002671532E+01  4.368729932770E+01  4.227695992416E+01  4.075640649313E+01
  3.912430477300E+01  3.773836432851E+01  3.628197387773E+01  3.475676732749E+01
  3.316519555705E+01  3.151056172224E+01  2.979703805112E+01  2.847624691595E+01
  2.712758206279E+01  2.575373288500E+01  2.435762618097E+01  2.294240569846E+01
  2.151140760407E+01  2.006813224807E+01  1.861621272172E+01  1.715938081836E+01
  1.570143110529E+01  1.424618388656E+01  1.327940290264E+01  1.231663483936E+01
  1.135898346134E+01  1.040753370764E+01  9.463347363492E+00  8.527458985536E+00
  7.600872117407E+00  6.684555828672E+00  5.779441605220E+00  4.886420614328E+00
  4.006341362433E+00  3.140007758416E+00  2.288177589928E+00  1.451561415207E+00
  6.308218678397E-01 -1.734266326637E-01 -9.606177760420E-01 -1.730232877652E+00
 -2.481800035090E+00 -3.214892947235E+00 -3.929129420614E+00 -4.624169590290E+00
 -5.299713884393E+00 -5.955500762979E+00 -6.591304263196E+00 -7.206931383686E+00
 -7.802219342022E+00 -8.377032739574E+00 -8.931260668764E+00 -9.200626403410E+00
 -9.464813798139E+00 -9.723814581697E+00 -9.977621471122E+00 -1.022622808438E+01
 -1.046962885464E+01 -1.070781894645E+01 -1.094079417416E+01 -1.116855092279E+01
 -1.139108607172E+01 -1.160839692142E+01 -1.182048112350E+01 -1.202733661435E+01
 -1.222896155270E+01 -1.242535426121E+01 -1.261651317248E+01 -1.280243677954E+01
 -1.298312359121E+01 -1.315857209236E+01 -1.332878070921E+01 -1.349374777999E+01
 -1.365347153082E+01 -1.380795005696E+01 -1.395718130953E+01 -1.410116308751E+01
 -1.423989303508E+01 -1.437336864411E+01 -1.450158726167E+01 -1.462454610238E+01
 -1.474224226524E+01 -1.485467275481E+01 -1.496183450629E+01 -1.506372441413E+01
 -1.516033936400E+01 -1.525167626738E+01 -1.533773209875E+01 -1.541850393473E+01
 -1.549398899493E+01 -1.556418468409E+01 -1.562908863526E+01 -1.568869875378E+01
 -1.574301326169E+01 -1.579203074257E+01 -1.583575018668E+01 -1.587417103622E+01
 -1.590729323084E+01 -1.593511725349E+01 -1.595764417663E+01 -1.597487570909E+01
 -1.598681424379E+01 -1.599346290679E+01 -1.599482560786E+01 -1.599090709353E+01
 -1.598171300285E+01 -1.596724992720E+01 -1.594752547493E+01 -1.592254834233E+01
 -1.589232839270E+01 -1.585687674549E+01 -1.581620587822E+01 -1.577032974433E+01
 -1.571926391066E+01 -1.566302571933E+01 -1.560163447925E+01 -1.553511169387E+01
 -1.546348133239E+01 -1.538677015330E+01 -1.530500808986E+01 -1.521822870881E+01
 -1.512646975457E+01 -1.502977379277E+01 -1.492818896782E+01 -1.482176989057E+01
 -1.471057867263E+01 -1.459468612458E+01 -1.447417313514E+01 -1.434913224797E+01
 -1.421966945098E+01 -1.408590619123E+01 -1.394798162471E+01 -1.380605510544E+01
 -1.366030891225E+01 -1.351095120329E+01 -1.335821917791E+01 -1.320238241366E+01