<?xml version="1.0" encoding="UTF-8" ?>
<psml version="1.1" energy_unit="hartree" length_unit="bohr"
 uuid="429b64f0-1d66-11e8-559a-f8ea4b5f85c8"
 xmlns="http://esl.cecam.org/PSML/ns/1.1">
<provenance creator="ONCVPSP-3.3.0+psml-3.3.0-73 (scalar-relativistic)"
 date="2018-03-01">
<annotation action="semilocal-pseudopotential-generation"
 action-cont="projectors-generation" />
<input-file name="oncvpsp-input">
<![CDATA[# atsym z nc nv iexc psfile
Os 76 10 4 -116133 upf
# n l f
1 0 2.0
2 0 2.0
2 1 6.0
3 0 2.0
3 1 6.0
3 2 10.0
4 0 2.0
4 1 6.0
4 2 10.0
4 3 14.0
5 0 2.0
5 1 6.0
5 2 6.0
6 0 2.0
# lmax
3
# l rc ep ncon nbas qcut
0 1.5 0.0 4 8 8.2
1 1.55 0.0 4 8 8.4
2 1.55 0.0 4 8 8.4
3 2.25 0.5 4 8 6.8
# lloc lpopt rc5 dvloc0
4 5 1.5 0.0
# l nproj debl
0 2 1.1
1 2 2.0
2 2 1.5
3 2 3.0
# icmod fcfact rcfact
3 5.0 1.4
# epsh1 epsh2 depsh
-12.0 12.0 0.02
# rlmax drl
6.0 0.01
 0
]]>
</input-file>
</provenance>
<pseudo-atom-spec atomic-label="Os" atomic-number="76" z-pseudo="16"
 flavor="Hamann&apos;s oncvpsp" relativity="scalar" spin-dft="no"
 core-corrections="yes">
<annotation pseudo-energy="-92.2859372780" />
<exchange-correlation>
<annotation oncvpsp-xc-code="-116133" oncvpsp-xc-type="libxc-interface" />
<libxc-info number-of-functionals="2">
<functional name="Perdew, Burke &amp; Ernzerhof SOL (GGA)" type="exchange"
 id="116" />
<functional name="Perdew, Burke &amp; Ernzerhof SOL (GGA)" type="correlation"
 id="133" />
</libxc-info>
</exchange-correlation>
<valence-configuration total-valence-charge="16">
<shell n="5" l="s" occupation="2" />
<shell n="5" l="p" occupation="6" />
<shell n="5" l="d" occupation="6" />
<shell n="6" l="s" occupation="2" />
</valence-configuration>
</pseudo-atom-spec>
<grid npts="457">
<annotation type="sampled from oncvpsp log grid"
 recipe="r(i:1..N) = r1*exp(a*(i-1)) + r=0; resampled"
 recipe-cont="r1: scale; a: step" scale="0.657894736842E-05"
 step="0.119285708653E-01" delta="0.500000000000E-02" rmax="44.2661643415" />
<grid-data>
  0.000000000000E+00  5.054775556102E-03  1.009651748877E-02  1.514638622830E-02
  2.016700133758E-02  2.529711905544E-02  3.061676245946E-02  3.575245982319E-02
  4.076538655265E-02  4.593002585167E-02  5.113535818743E-02  5.625555354481E-02
  6.188843525909E-02  6.727800270248E-02  7.313692176392E-02  7.856330635186E-02
  8.439230085264E-02  8.957883088678E-02  9.508411148849E-02  1.009277322338E-01
  1.071304866227E-01  1.123660534284E-01  1.178574872674E-01  1.236172926000E-01
  1.296585849917E-01  1.359951209775E-01  1.426413293872E-01  1.478382847836E-01
  1.532245846394E-01  1.588071274791E-01  1.645930631661E-01  1.705898020602E-01
  1.768050245080E-01  1.832466906800E-01  1.899230507651E-01  1.968426555376E-01
  2.040143673083E-01  2.114473712749E-01  2.165525566070E-01  2.217810015337E-01
  2.271356820347E-01  2.326196459418E-01  2.382360146734E-01  2.439879850116E-01
  2.498788309218E-01  2.559119054155E-01  2.620906424599E-01  2.684185589314E-01
  2.748992566183E-01  2.815364242701E-01  2.883338396977E-01  2.952953719233E-01
  3.024249833830E-01  3.097267321818E-01  3.172047744036E-01  3.248633664768E-01
  3.327068675970E-01  3.407397422083E-01  3.489665625442E-01  3.573920112303E-01
  3.660208839494E-01  3.748580921715E-01  3.839086659489E-01  3.931777567795E-01
  4.026706405392E-01  4.123927204844E-01  4.223495303278E-01  4.274177246917E-01
  4.325467373880E-01  4.377372982367E-01  4.429901458155E-01  4.483060275653E-01
  4.536856998961E-01  4.591299282948E-01  4.646394874344E-01  4.702151612836E-01
  4.758577432190E-01  4.815680361376E-01  4.873468525712E-01  4.931950148021E-01
  4.991133549797E-01  5.051027152395E-01  5.111639478224E-01  5.172979151962E-01
  5.235054901786E-01  5.297875560607E-01  5.361450067335E-01  5.425787468143E-01
  5.490896917760E-01  5.556787680773E-01  5.623469132943E-01  5.690950762538E-01
  5.759242171688E-01  5.828353077749E-01  5.898293314682E-01  5.969072834458E-01
  6.040701708471E-01  6.113190128973E-01  6.186548410521E-01  6.260786991447E-01
  6.335916435344E-01  6.411947432568E-01  6.488890801759E-01  6.566757491380E-01
  6.645558581277E-01  6.725305284252E-01  6.806008947663E-01  6.887681055035E-01
  6.970333227696E-01  7.053977226428E-01  7.138624953145E-01  7.224288452583E-01
  7.310979914014E-01  7.398711672982E-01  7.487496213058E-01  7.577346167615E-01
  7.668274321626E-01  7.760293613485E-01  7.853417136847E-01  7.947658142489E-01
  8.043030040199E-01  8.139546400682E-01  8.237220957490E-01  8.336067608980E-01
  8.436100420288E-01  8.537333625331E-01  8.639781628835E-01  8.743459008381E-01
  8.848380516482E-01  8.954561082679E-01  9.062015815671E-01  9.170760005460E-01
  9.280809125525E-01  9.392178835031E-01  9.504884981052E-01  9.618943600824E-01
  9.734370924034E-01  9.851183375123E-01  9.969397575624E-01  1.008903034653E+00
  1.021009871069E+00  1.033261989522E+00  1.045661133396E+00  1.058209066997E+00
  1.070907575801E+00  1.083758466710E+00  1.096763568311E+00  1.109924731131E+00
  1.123243827904E+00  1.136722753839E+00  1.150363426885E+00  1.164167788008E+00
  1.178137801464E+00  1.192275455081E+00  1.206582760542E+00  1.221061753669E+00
  1.235714494713E+00  1.250543068650E+00  1.265549585473E+00  1.280736180499E+00
  1.296105014665E+00  1.311658274841E+00  1.327398174139E+00  1.343326952229E+00
  1.359446875655E+00  1.375760238163E+00  1.392269361021E+00  1.408976593354E+00
  1.425884312474E+00  1.442994924223E+00  1.460310863314E+00  1.477834593674E+00
  1.495568608798E+00  1.513515432104E+00  1.531677617289E+00  1.550057748696E+00
  1.568658441681E+00  1.587482342981E+00  1.606532131097E+00  1.625810516670E+00
  1.645320242870E+00  1.665064085784E+00  1.685044854814E+00  1.705265393071E+00
  1.725728577788E+00  1.746437320722E+00  1.767394568570E+00  1.788603303393E+00
  1.810066543034E+00  1.831787341550E+00  1.853768789649E+00  1.876014015125E+00
  1.898526183306E+00  1.921308497506E+00  1.944364199476E+00  1.967696569870E+00
  1.991308928708E+00  2.015204635853E+00  2.039387091483E+00  2.063859736581E+00
  2.088626053420E+00  2.113689566061E+00  2.139053840853E+00  2.164722486944E+00
  2.190699156787E+00  2.216987546668E+00  2.243591397228E+00  2.270514493995E+00
  2.297760667923E+00  2.325333795938E+00  2.353237801489E+00  2.381476655107E+00
  2.410054374969E+00  2.438975027468E+00  2.468242727798E+00  2.497861640531E+00
  2.527835980218E+00  2.558170011980E+00  2.588868052124E+00  2.619934468750E+00
  2.651373682375E+00  2.683190166563E+00  2.715388448562E+00  2.747973109945E+00
  2.780948787264E+00  2.814320172711E+00  2.848092014784E+00  2.882269118961E+00
  2.916856348389E+00  2.951858624569E+00  2.987280928064E+00  3.023128299201E+00
  3.059405838791E+00  3.096118708857E+00  3.133272133363E+00  3.170871398963E+00
  3.208921855751E+00  3.247428918020E+00  3.286398065036E+00  3.325834841817E+00
  3.365744859918E+00  3.406133798237E+00  3.447007403816E+00  3.488371492662E+00
  3.530231950574E+00  3.572594733981E+00  3.615465870789E+00  3.658851461238E+00
  3.702757678773E+00  3.747190770918E+00  3.792157060169E+00  3.837662944891E+00
  3.883714900230E+00  3.930319479033E+00  3.977483312781E+00  4.025213112535E+00
  4.073515669885E+00  4.122397857924E+00  4.171866632219E+00  4.221929031805E+00
  4.272592180187E+00  4.323863286349E+00  4.375749645785E+00  4.428258641535E+00
  4.481397745233E+00  4.535174518176E+00  4.589596612394E+00  4.644671771743E+00
  4.700407833004E+00  4.756812727000E+00  4.813894479724E+00  4.871661213481E+00
  4.930121148042E+00  4.989282601819E+00  5.049153993041E+00  5.109743840957E+00
  5.171060767049E+00  5.233113496253E+00  5.295910858208E+00  5.359461788507E+00
  5.423775329969E+00  5.488860633928E+00  5.554726961536E+00  5.621383685074E+00
  5.688840289295E+00  5.757106372766E+00  5.826191649240E+00  5.896105949031E+00
  5.966859220419E+00  6.038461531064E+00  6.110923069437E+00  6.184254146270E+00
  6.258465196025E+00  6.333566778377E+00  6.409569579718E+00  6.486484414675E+00
  6.564322227651E+00  6.643094094383E+00  6.722811223515E+00  6.803484958197E+00
  6.885126777696E+00  6.967748299028E+00  7.051361278616E+00  7.135977613960E+00
  7.221609345327E+00  7.308268657471E+00  7.395967881361E+00  7.484719495937E+00
  7.574536129888E+00  7.665430563447E+00  7.757415730208E+00  7.850504718971E+00
  7.944710775599E+00  8.040047304906E+00  8.136527872565E+00  8.234166207035E+00
  8.332976201520E+00  8.432971915938E+00  8.534167578929E+00  8.636577589877E+00
  8.740216520955E+00  8.845099119206E+00  8.951240308637E+00  9.058655192341E+00
  9.167359054649E+00  9.277367363304E+00  9.388695771664E+00  9.501360120924E+00
  9.615376442375E+00  9.730760959684E+00  9.847530091200E+00  9.965700452294E+00
  1.008528885772E+01  1.020631232401E+01  1.032878807190E+01  1.045273352877E+01
  1.057816633111E+01  1.070510432708E+01  1.083356557901E+01  1.096356836596E+01
  1.109513118635E+01  1.122827276058E+01  1.136301203371E+01  1.149936817812E+01
  1.163736059625E+01  1.177700892341E+01  1.191833303049E+01  1.206135302686E+01
  1.220608926318E+01  1.235256233434E+01  1.250079308235E+01  1.265080259934E+01
  1.280261223053E+01  1.295624357729E+01  1.311171850022E+01  1.326905912222E+01
  1.342828783169E+01  1.358942728567E+01  1.375250041310E+01  1.391753041806E+01
  1.408454078307E+01  1.425355527247E+01  1.442459793574E+01  1.459769311097E+01
  1.477286542830E+01  1.495013981344E+01  1.512954149120E+01  1.531109598910E+01
  1.549482914097E+01  1.568076709066E+01  1.586893629574E+01  1.605936353129E+01
  1.625207589367E+01  1.644710080439E+01  1.664446601405E+01  1.684419960621E+01
  1.704633000149E+01  1.725088596151E+01  1.745789659304E+01  1.766739135216E+01
  1.787940004839E+01  1.809395284897E+01  1.831108028316E+01  1.853081324655E+01
  1.875318300551E+01  1.897822120158E+01  1.920595985600E+01  1.943643137427E+01
  1.966966855076E+01  1.990570457337E+01  2.014457302825E+01  2.038630790459E+01
  2.063094359944E+01  2.087851492264E+01  2.112905710171E+01  2.138260578693E+01
  2.163919705637E+01  2.189886742105E+01  2.216165383010E+01  2.242759367606E+01
  2.269672480018E+01  2.296908549778E+01  2.324471452375E+01  2.352365109804E+01
  2.380593491121E+01  2.409160613015E+01  2.438070540371E+01  2.467327386855E+01
  2.496935315498E+01  2.526898539284E+01  2.557221321755E+01  2.587907977616E+01
  2.618962873347E+01  2.650390427828E+01  2.682195112962E+01  2.714381454317E+01
  2.746954031769E+01  2.779917480150E+01  2.813276489912E+01  2.847035807791E+01
  2.881200237484E+01  2.915774640334E+01  2.950763936018E+01  2.986173103250E+01
  3.022007180489E+01  3.058271266655E+01  3.094970521855E+01  3.132110168117E+01
  3.169695490135E+01  3.207731836016E+01  3.246224618049E+01  3.285179313465E+01
  3.324601465227E+01  3.364496682810E+01  3.404870643003E+01  3.445729090719E+01
  3.487077839808E+01  3.528922773886E+01  3.571269847172E+01  3.614125085338E+01
  3.657494586362E+01  3.701384521399E+01  3.745801135655E+01  3.790750749283E+01
  3.836239758275E+01  3.882274635374E+01  3.928861930999E+01  3.976008274171E+01
  4.023720373461E+01  4.072005017942E+01  4.120869078157E+01  4.170319507095E+01
  4.220363341180E+01  4.271007701275E+01  4.322259793690E+01  4.374126911214E+01
  4.426616434149E+01
</grid-data>
</grid>
<valence-charge total-charge="16" is-unscreening-charge="yes"
 rescaled-to-z-pseudo="no">
<radfunc>
<data npts="457">
  8.896149580006E-01  8.904666695028E-01  8.930132773108E-01  8.972637586942E-01
  9.031772609726E-01  9.109597533071E-01  9.208897407437E-01  9.322759826378E-01
  9.450984025474E-01  9.600778325865E-01  9.769963298750E-01  9.954265233968E-01
  1.017757295035E+00  1.041145754727E+00  1.068822676428E+00  1.096556585903E+00
  1.128607471134E+00  1.159101139387E+00  1.193512556834E+00  1.232351238141E+00
  1.276194165659E+00  1.315307903869E+00  1.358415028275E+00  1.405928874328E+00
  1.458306135816E+00  1.516051348991E+00  1.579721772013E+00  1.631730786283E+00
  1.687700298748E+00  1.747934655635E+00  1.812761236912E+00  1.882531979325E+00
  1.957624929827E+00  2.038445808246E+00  2.125429551018E+00  2.219041799142E+00
  2.319780282987E+00  2.428176043803E+00  2.504971671229E+00  2.585597193007E+00
  2.670235679793E+00  2.759077145443E+00  2.852318483886E+00  2.950163339868E+00
  3.052821902029E+00  3.160510605397E+00  3.273451728816E+00  3.391872871202E+00
  3.516006288731E+00  3.646088073257E+00  3.782357150281E+00  3.925054072845E+00
  4.074419585694E+00  4.230692932055E+00  4.394109873497E+00  4.564900391511E+00
  4.743286037950E+00  4.929476900211E+00  5.123668146300E+00  5.326036114753E+00
  5.536733915007E+00  5.755886505413E+00  5.983585218920E+00  6.219881710738E+00
  6.464781308383E+00  6.718235752690E+00  6.980135329014E+00  7.114198880037E+00
  7.250300401281E+00  7.388405030745E+00  7.528472378238E+00  7.670456215738E+00
  7.814304161458E+00  7.959957358459E+00  8.107350148801E+00  8.256409744336E+00
  8.407055895412E+00  8.559200558898E+00  8.712747567112E+00  8.867592299409E+00
  9.023621358344E+00  9.180712252544E+00  9.338733088593E+00  9.497542274434E+00
  9.656988237025E+00  9.816909157139E+00  9.977132724471E+00  1.013747591637E+01
  1.029774480374E+01  1.045773438788E+01  1.061722847218E+01  1.077599957278E+01
  1.093380887256E+01  1.109040622275E+01  1.124553019688E+01  1.139890820169E+01
  1.155025664967E+01  1.169928119804E+01  1.184567705902E+01  1.198912938586E+01
  1.212931373950E+01  1.226589664007E+01  1.239853620743E+01  1.252688289479E+01
  1.265058031865E+01  1.276926618834E+01  1.288257333738E+01  1.299013085876E+01
  1.309156534495E+01  1.318650223316E+01  1.327456725503E+01  1.335538798902E+01
  1.342859551292E+01  1.349382615208E+01  1.355072331844E+01  1.359893943337E+01
  1.363813792626E+01  1.366799529939E+01  1.368820324766E+01  1.369847082077E+01
  1.369852661340E+01  1.368812096783E+01  1.366702817165E+01  1.363504863213E+01
  1.359201100745E+01  1.353777427371E+01  1.347222970608E+01  1.339530275142E+01
  1.330695476941E+01  1.320718461889E+01  1.309603006643E+01  1.297356899436E+01
  1.283992038652E+01  1.269524507081E+01  1.253974619953E+01  1.237366945014E+01
  1.219730293127E+01  1.201097678163E+01  1.181506245222E+01  1.160997166540E+01
  1.139615504789E+01  1.117410043843E+01  1.094433087427E+01  1.070740226493E+01
  1.046390076490E+01  1.021443986115E+01  9.959657194532E+00  9.700211137627E+00
  9.436777154751E+00  9.170043972387E+00  8.900709590911E+00  8.629477170393E+00
  8.357050824932E+00  8.084131361226E+00  7.811411997949E+00  7.539574103091E+00
  7.269282986604E+00  7.001183785750E+00  6.735897480283E+00  6.474017074210E+00
  6.216103980354E+00  5.962684643260E+00  5.714247435196E+00  5.471239859033E+00
  5.234066090642E+00  5.003084891989E+00  4.778607924299E+00  4.560898488402E+00
  4.350170716526E+00  4.146589236309E+00  3.950269323593E+00  3.761277555555E+00
  3.579632970020E+00  3.405308730322E+00  3.238234506456E+00  3.078300128784E+00
  2.925361259535E+00  2.779248622399E+00  2.639780593543E+00  2.506765662850E+00
  2.380003967488E+00  2.259289256034E+00  2.144410530935E+00  2.035153590416E+00
  1.931302443188E+00  1.832640599207E+00  1.738952239133E+00  1.650023265701E+00
  1.565642240885E+00  1.485601213280E+00  1.409696440582E+00  1.337729012424E+00
  1.269505379099E+00  1.204837791905E+00  1.143544660995E+00  1.085450836649E+00
  1.030387819923E+00  9.781939085575E-01  9.287142839482E-01  8.818010448799E-01
  8.373131932633E-01  7.951165776840E-01  7.550837992793E-01  7.170940850331E-01
  6.810331329875E-01  6.467929336471E-01  6.142715715776E-01  5.833730109119E-01
  5.540068681962E-01  5.260881757217E-01  4.995371382105E-01  4.742788854504E-01
  4.502432232072E-01  4.273643844890E-01  4.055807829918E-01  3.848347703211E-01
  3.650723983671E-01  3.462431880024E-01  3.282999050779E-01  3.111983445168E-01
  2.948971231383E-01  2.793574816964E-01  2.645430964776E-01  2.504199006846E-01
  2.369559157163E-01  2.241210923635E-01  2.118871618485E-01  2.002274965664E-01
  1.891169803205E-01  1.785318877894E-01  1.684497729210E-01  1.588493659096E-01
  1.497104783838E-01  1.410139164133E-01  1.327414009235E-01  1.248754950996E-01
  1.173995383562E-01  1.102975864477E-01  1.035543572984E-01  9.715518214042E-02
  9.108596155352E-02  8.533312601982E-02  7.988360061629E-02  7.472477348869E-02
  6.984446776796E-02  6.523091661084E-02  6.087274106726E-02  5.675893049847E-02
  5.287882528564E-02  4.922210162952E-02  4.577875816174E-02  4.253910424207E-02
  3.949374973456E-02  3.663359611070E-02  3.394982873537E-02  3.143391020312E-02
  2.907757460184E-02  2.687282258792E-02  2.481191716216E-02  2.288738003945E-02
  2.109198850737E-02  1.941877267110E-02  1.786101298355E-02  1.641223796219E-02
  1.506622199733E-02  1.381698316137E-02  1.265878093447E-02  1.158611377007E-02
  1.059371643268E-02  9.676557050855E-03  8.829833839647E-03  8.048971458591E-03
  7.329616983497E-03  6.667635482033E-03  6.059105194320E-03  5.500312330076E-03
  4.987745502963E-03  4.518089830636E-03  4.088220735376E-03  3.695197485110E-03
  3.336256518115E-03  3.008804596830E-03  2.710411837030E-03  2.438804658375E-03
  2.191858701038E-03  1.967591751098E-03  1.764156714554E-03  1.579834676615E-03
  1.413028079231E-03  1.262254045981E-03  1.126137879401E-03  1.003406751876E-03
  8.928836072254E-04  7.934812864243E-04  7.041968872197E-04  6.241063643995E-04
  5.523593742030E-04  4.881743637322E-04  4.308339045558E-04  3.796802670690E-04
  3.341112306638E-04  2.935761239846E-04  2.575720882586E-04  2.256405559784E-04
  1.973639368413E-04  1.723625025673E-04  1.502914621104E-04  1.308382188042E-04
  1.137198011023E-04  9.868045876127E-05  8.548941654947E-05  7.393877781861E-05
  6.384157054521E-05  5.502992871394E-05  4.735340217224E-05  4.067738832977E-05
  3.488167930454E-05  2.985911833109E-05  2.551435944474E-05  2.176272464338E-05
  1.852915290594E-05  1.574723561851E-05  1.335833312674E-05  1.131076730028E-05
  9.559085162887E-06  8.063388812008E-06  6.788727026082E-06  5.704544135955E-06
  4.784181919760E-06  4.004430467727E-06  3.345124154108E-06  2.788779047164E-06
  2.320268283665E-06  1.926532130742E-06  1.596319653830E-06  1.319959103765E-06
  1.089154327629E-06  8.968046955233E-07  7.368462182180E-07  6.041117074510E-07
  4.942080009710E-07  4.034084374178E-07  3.285589213817E-07  2.669960660541E-07
  2.164760395178E-07  1.751128707866E-07  1.413250931378E-07  1.137897151555E-07
  9.140261434588E-08  7.324454442907E-08  5.855203570294E-08  4.669254856585E-08
  3.714331371281E-08  2.947335909108E-08  2.332828381593E-08  1.841739333116E-08
  1.450285857356E-08  1.139060519035E-08  8.922677377109E-09  6.970855056228E-09
  5.431333288328E-09  4.220299374107E-09  3.270266410236E-09  2.527042440613E-09
  1.947232099966E-09  1.496183065353E-09  1.146302974627E-09  8.756839796470E-10
  6.669819946708E-10  5.065061751988E-10  3.834813982769E-10  2.894526722020E-10
  2.178056248697E-10  1.633816328322E-10  1.221698700300E-10  9.106167520282E-11
  6.765524706701E-11  5.010085231803E-11  3.697853931666E-11  2.720184703089E-11
  1.994223363745E-11  1.456996438085E-11  1.060802995916E-11  7.696345604898E-12
  5.564033230761E-12  4.008036535110E-12  2.876680330421E-12  2.057076087511E-12
  1.465508696957E-12  1.040125697721E-12  7.353973368305E-13  4.721128601936E-13
  3.314357374613E-13  2.317564803406E-13  1.614072228407E-13  1.119571391795E-13
  7.733878254330E-14  5.320326457660E-14  3.644626927567E-14  2.486107441298E-14
  1.688560485695E-14  1.141881117296E-14  7.687941179493E-15  5.153012265271E-15
  3.438357700987E-15  2.283790156952E-15  1.509916115124E-15  9.936120633487E-16
  6.507646279253E-16  4.241792404859E-16  2.751492344241E-16  1.776050749405E-16
  1.140735684580E-16  7.290064933118E-17  4.635197939216E-17  2.932035203058E-17
  1.845046222363E-17  1.154929138311E-17  7.190944852411E-18  4.453190678270E-18
  2.742730799632E-18  1.679937558962E-18  1.023227777374E-18  6.197143322035E-19
  3.731824884207E-19  2.234249000243E-19  1.329818069020E-19  7.868149518426E-20
  4.627449642702E-20  2.705005492375E-20  1.571521055344E-20  9.073309476977E-21
  5.205616667038E-21  2.967608846254E-21  1.680876503497E-21  9.458578512932E-22
  5.287405912629E-22  2.935968960605E-22  1.619261470514E-22  8.869600835209E-23
  0.000000000000E+00  0.000000000000E+00  0.000000000000E+00  0.000000000000E+00
  0.000000000000E+00  0.000000000000E+00  0.000000000000E+00  0.000000000000E+00
  0.000000000000E+00  0.000000000000E+00  0.000000000000E+00  0.000000000000E+00
  0.000000000000E+00  0.000000000000E+00  0.000000000000E+00  0.000000000000E+00
  0.000000000000E+00
</data>
</radfunc>
</valence-charge>
<pseudocore-charge matching-radius="0.874345900838"
 number-of-continuous-derivatives="4">
<annotation model-charge-form="Teter function with specified parameters" />
<radfunc>
<data npts="290">
  6.892951099458E+01  6.892579743880E+01  6.891469616539E+01  6.889617473697E+01
  6.887042215929E+01  6.883655767346E+01  6.879339354602E+01  6.874396097034E+01
  6.868837175849E+01  6.862353578890E+01  6.855044140546E+01  6.847097699310E+01
  6.837491765987E+01  6.827456779527E+01  6.815615670529E+01  6.803786555686E+01
  6.790160894118E+01  6.777241151276E+01  6.762712161645E+01  6.746377411168E+01
  6.728017444920E+01  6.711707735220E+01  6.693807698103E+01  6.674166965457E+01
  6.652621938420E+01  6.628994833413E+01  6.603092706387E+01  6.582047981929E+01
  6.559511808426E+01  6.535384051395E+01  6.509558708992E+01  6.481923703624E+01
  6.452360689909E+01  6.420744884350E+01  6.386944923008E+01  6.350822754415E+01
  6.312233576079E+01  6.271025824133E+01  6.242021340270E+01  6.211734311234E+01
  6.180114935417E+01  6.147112172366E+01  6.112673787984E+01  6.076746410507E+01
  6.039275598370E+01  6.000205921122E+01  5.959481054644E+01  5.917043891993E+01
  5.872836671244E+01  5.826801121813E+01  5.778878630764E+01  5.729010430688E+01
  5.677137810790E+01  5.623202352854E+01  5.567146193775E+01  5.508912316387E+01
  5.448444870283E+01  5.385689524282E+01  5.320593852192E+01  5.253107753346E+01
  5.183183909338E+01  5.110778278147E+01  5.035850626664E+01  4.958365102313E+01
  4.878290844134E+01  4.795602633287E+01  4.710281582400E+01  4.666629749079E+01
  4.622315862636E+01  4.577339672545E+01  4.531701466654E+01  4.485402096798E+01
  4.438443004847E+01  4.390826249154E+01  4.342554531353E+01  4.293631223475E+01
  4.244060395315E+01  4.193846842006E+01  4.142996111732E+01  4.091514533509E+01
  4.039409244976E+01  3.986688220089E+01  3.933360296667E+01  3.879435203665E+01
  3.824923588095E+01  3.769837041479E+01  3.714188125730E+01  3.657990398327E+01
  3.601258436671E+01  3.544007861471E+01  3.486255359030E+01  3.428018702277E+01
  3.369316770383E+01  3.310169566797E+01  3.250598235535E+01  3.190625075537E+01
  3.130273552905E+01  3.069568310836E+01  3.008535177045E+01  2.947201168475E+01
  2.885594493086E+01  2.823744548515E+01  2.761681917383E+01  2.699438359029E+01
  2.637046797465E+01  2.574541305313E+01  2.511957083519E+01  2.449330436621E+01
  2.386698743361E+01  2.324100422434E+01  2.261574893169E+01  2.199162530967E+01
  2.136904617302E+01  2.074843284136E+01  2.013021452587E+01  1.951482765742E+01
  1.890271515481E+01  1.829432563264E+01  1.769011254801E+01  1.709053328593E+01
  1.649604818356E+01  1.590711949371E+01  1.532421028850E+01  1.474778330451E+01
  1.417829973110E+01  1.361621794430E+01  1.306199218888E+01  1.251607121214E+01
  1.197889685316E+01  1.145090259204E+01  1.093251206436E+01  1.042413754654E+01
  9.926178418448E+00  9.439019610413E+00  8.963030042305E+00  8.498561062988E+00
  8.045944899152E+00  7.605493123102E+00  7.177495149628E+00  6.762216772671E+00
  6.359898752912E+00  5.970755467908E+00  5.594973636674E+00  5.232711130913E+00
  4.884095885262E+00  4.549224918941E+00  4.228163481178E+00  3.920944332539E+00
  3.627567173986E+00  3.347998234959E+00  3.082170031157E+00  2.829981301828E+00
  2.591297135386E+00  2.365949290996E+00  2.153736722368E+00  1.954426308470E+00
  1.767753794122E+00  1.593424941523E+00  1.431116891706E+00  1.280479732690E+00
  1.141138268757E+00  1.012693982830E+00  8.947271814263E-01  7.867993090426E-01
  6.884554163103E-01  5.992267636683E-01  5.186335398568E-01  4.461876721864E-01
  3.813957033713E-01  3.237617077751E-01  2.727902182634E-01  2.279891335306E-01
  1.888725748341E-01  1.549636605666E-01  1.257971670714E-01  1.009220446041E-01
  7.990375838291E-02  6.232642628100E-02  4.779472690476E-02  3.593555456584E-02
  2.639940097912E-02  1.886144736924E-02  1.302235499746E-02  8.608746863457E-03
  5.373378412439E-03  3.095000389406E-03  1.577922418513E-03  6.512913216140E-04
  1.681034921790E-04  3.975667345288E-06  5.570304763214E-05  2.396377578099E-04
  4.899239871302E-04  7.566286678285E-04  1.003808140108E-03  1.207551825122E-03
  1.354043428240E-03  1.437678599353E-03  1.459275297876E-03  1.424409399517E-03
  1.341903432388E-03  1.222490874330E-03  1.077672351960E-03  9.187735590266E-04
  7.562079884053E-04  5.989408984973E-04  4.541445697280E-04  3.270291059972E-04
  2.208280397453E-04  1.369140196720E-04  7.501706805155E-05  3.351640854259E-05
  9.776742020182E-06  5.010753594899E-07  2.074702748641E-06  1.087854696764E-05
  2.355457022530E-05  3.721108712638E-05  4.956124286425E-05  5.899332328886E-05
  6.457660577296E-05  6.601082961483E-05  6.353079683755E-05  5.777991020833E-05
  4.966750037712E-05  4.022456852526E-05  3.047115428769E-05  2.130610554723E-05
  1.342683409157E-05  7.283007972739E-06  3.064410879486E-06  7.197461253442E-07
  3.011609155663E-10  5.203765470467E-07  1.825387992730E-06  3.458627740505E-06
  5.018760678381E-06  6.202057122239E-06  6.825860889647E-06  6.832528239081E-06
  6.275698042897E-06  5.292935474428E-06  4.070264671639E-06  2.804705372649E-06
  1.670613821196E-06  7.944896254384E-07  2.411565571985E-07  1.215322113122E-08
  0.000000000000E+00  0.000000000000E+00  0.000000000000E+00  0.000000000000E+00
  0.000000000000E+00  0.000000000000E+00  0.000000000000E+00  0.000000000000E+00
  0.000000000000E+00  0.000000000000E+00  0.000000000000E+00  0.000000000000E+00
  0.000000000000E+00  0.000000000000E+00  0.000000000000E+00  0.000000000000E+00
  0.000000000000E+00  0.000000000000E+00  0.000000000000E+00  0.000000000000E+00
  0.000000000000E+00  0.000000000000E+00  0.000000000000E+00  0.000000000000E+00
  0.000000000000E+00  0.000000000000E+00  0.000000000000E+00  0.000000000000E+00
  0.000000000000E+00  0.000000000000E+00  0.000000000000E+00  0.000000000000E+00
  0.000000000000E+00  0.000000000000E+00  0.000000000000E+00  0.000000000000E+00
  0.000000000000E+00  0.000000000000E+00  0.000000000000E+00  0.000000000000E+00
  0.000000000000E+00  0.000000000000E+00
</data>
</radfunc>
</pseudocore-charge>
<semilocal-potentials set="scalar_relativistic">
<slps n="5" l="s" rc="1.51351543210" eref="-3.36619376104">
<radfunc>
<data npts="290">
  3.712589556131E+00  3.706939351132E+00  3.690060395696E+00  3.661938454689E+00
  3.622917973443E+00  3.571748919818E+00  3.506761977687E+00  3.432657444259E+00
  3.349728931895E+00  3.253544110869E+00  3.145796600999E+00  3.029479215906E+00
  2.889998659645E+00  2.745590470462E+00  2.576879081620E+00  2.410135841185E+00
  2.220258438944E+00  2.042347544955E+00  1.844708664619E+00  1.625522704187E+00
  1.382893508771E+00  1.170600071392E+00  9.410391980926E-01  6.931955474108E-01
  4.260666779448E-01  1.386790497612E-01 -1.698934938452E-01 -4.157447397464E-01
 -6.743260723867E-01 -9.459316873079E-01 -1.230814427528E+00 -1.529179123030E+00
 -1.841175709216E+00 -2.166892214209E+00 -2.506347721328E+00 -2.859485428856E+00
 -3.226165943491E+00 -3.606160955759E+00 -3.866732451339E+00 -4.132959834985E+00
 -4.404702639420E+00 -4.681799596730E+00 -4.964068237255E+00 -5.251304589925E+00
 -5.543282991313E+00 -5.839756009691E+00 -6.140454489218E+00 -6.445087718062E+00
 -6.753343722780E+00 -7.064889689658E+00 -7.379372511993E+00 -7.696419460511E+00
 -8.015638972222E+00 -8.336621551207E+00 -8.658940772958E+00 -8.982154382168E+00
 -9.305805472201E+00 -9.629423733011E+00 -9.952526752967E+00 -1.027462135903E+01
 -1.059520497886E+01 -1.091376700813E+01 -1.122979016582E+01 -1.154275182091E+01
 -1.185212527391E+01 -1.215738097798E+01 -1.245798768524E+01 -1.260638144755E+01
 -1.275341350571E+01 -1.289901743080E+01 -1.304312686806E+01 -1.318567556097E+01
 -1.332659737354E+01 -1.346582631071E+01 -1.360329653698E+01 -1.373894239318E+01
 -1.387269841140E+01 -1.400449932816E+01 -1.413428009577E+01 -1.426197589208E+01
 -1.438752212849E+01 -1.451085445648E+01 -1.463190877263E+01 -1.475062122230E+01
 -1.486692820209E+01 -1.498076636117E+01 -1.509207260170E+01 -1.520078407839E+01
 -1.530683819756E+01 -1.541017261564E+01 -1.551072523763E+01 -1.560843421540E+01
 -1.570323794630E+01 -1.579507507233E+01 -1.588388447987E+01 -1.596960530062E+01
 -1.605217691368E+01 -1.613153894930E+01 -1.620763129452E+01 -1.628039410096E+01
 -1.634976779518E+01 -1.641569309187E+01 -1.647811101024E+01 -1.653696289387E+01
 -1.659219043453E+01 -1.664373570002E+01 -1.669154116674E+01 -1.673554975693E+01
 -1.677570488121E+01 -1.681195048652E+01 -1.684423110995E+01 -1.687249193853E+01
 -1.689667887542E+01 -1.691673861268E+01 -1.693261871075E+01 -1.694426768506E+01
 -1.695163509967E+01 -1.695467166834E+01 -1.695332936289E+01 -1.694756152926E+01
 -1.693732301104E+01 -1.692257028081E+01 -1.690326157919E+01 -1.687935706178E+01
 -1.685081895406E+01 -1.681761171440E+01 -1.677970220548E+01 -1.673705987423E+01
 -1.668965694099E+01 -1.663746859809E+01 -1.658047321903E+01 -1.651865257876E+01
 -1.645199208667E+01 -1.638048103364E+01 -1.630411285513E+01 -1.622288541263E+01
 -1.613680129641E+01 -1.604586815291E+01 -1.595009904086E+01 -1.584951282114E+01
 -1.574413458582E+01 -1.563399613319E+01 -1.551913649650E+01 -1.539960253530E+01
 -1.527544959962E+01 -1.514674227889E+01 -1.501355524881E+01 -1.487597423143E+01
 -1.473409708548E+01 -1.458803504599E+01 -1.443791413435E+01 -1.428387676190E+01