<?xml version="1.0" encoding="UTF-8" ?>
<psml version="1.1" energy_unit="hartree" length_unit="bohr"
 uuid="15519290-1d65-11e8-48f6-1ba5d3bf8fc0"
 xmlns="http://esl.cecam.org/PSML/ns/1.1">
<provenance creator="ONCVPSP-3.3.0+psml-3.3.0-73 (scalar-relativistic)"
 date="2018-03-01">
<annotation action="semilocal-pseudopotential-generation"
 action-cont="projectors-generation" />
<input-file name="oncvpsp-input">
<![CDATA[# atsym z nc nv iexc psfile
Al 13 3 2 -116133 upf
# n l f
1 0 2.0
2 0 2.0
2 1 6.0
3 0 2.0
3 1 1.0
# lmax
2
# l rc ep ncon nbas qcut
0 1.75 0.0 4 9 6.0
1 1.75 0.0 4 9 6.4
2 1.7 0.05 4 9 6.5
# lloc lpopt rc5 dvloc0
4 5 1.4 0.0
# l nproj debl
0 2 2.8
1 2 2.8
2 2 1.5
# icmod fcfact
3 5 1.3
# epsh1 epsh2 depsh
-12.0 12.0 0.02
# rlmax drl
6.0 0.01
 0
]]>
</input-file>
</provenance>
<pseudo-atom-spec atomic-label="Al" atomic-number="13" z-pseudo="3"
 flavor="Hamann&apos;s oncvpsp" relativity="scalar" spin-dft="no"
 core-corrections="yes">
<annotation pseudo-energy="-1.94820900346" />
<exchange-correlation>
<annotation oncvpsp-xc-code="-116133" oncvpsp-xc-type="libxc-interface" />
<libxc-info number-of-functionals="2">
<functional name="Perdew, Burke &amp; Ernzerhof SOL (GGA)" type="exchange"
 id="116" />
<functional name="Perdew, Burke &amp; Ernzerhof SOL (GGA)" type="correlation"
 id="133" />
</libxc-info>
</exchange-correlation>
<valence-configuration total-valence-charge="3">
<shell n="3" l="s" occupation="2" />
<shell n="3" l="p" occupation="1" />
</valence-configuration>
</pseudo-atom-spec>
<grid npts="457">
<annotation type="sampled from oncvpsp log grid"
 recipe="r(i:1..N) = r1*exp(a*(i-1)) + r=0; resampled"
 recipe-cont="r1: scale; a: step" scale="0.384615384615E-04"
 step="0.119285708653E-01" delta="0.500000000000E-02" rmax="44.2819035286" />
<grid-data>
  0.000000000000E+00  5.056572821787E-03  1.010010738593E-02  1.515177164649E-02
  2.017417187544E-02  2.530611364749E-02  3.062764849307E-02  3.576517189487E-02
  4.077988101034E-02  4.594635663797E-02  5.115353977107E-02  5.627555565467E-02
  6.191044018488E-02  6.730192393188E-02  7.316292617862E-02  7.859124016080E-02
  8.442230720698E-02  8.961068135315E-02  9.511791940120E-02  1.009636178924E-01
  1.071685777200E-01  1.124060060732E-01  1.178993924351E-01  1.236612457124E-01
  1.297046861337E-01  1.360434751253E-01  1.426920466473E-01  1.478908498626E-01
  1.532790648602E-01  1.588635926174E-01  1.646515855399E-01  1.706504566222E-01
  1.768678889419E-01  1.833118454995E-01  1.899905794176E-01  1.969126445107E-01
  2.040869062406E-01  2.115225530709E-01  2.166295535922E-01  2.218598575342E-01
  2.272164419345E-01  2.327023557085E-01  2.383207213848E-01  2.440747368819E-01
  2.499676773291E-01  2.560028969306E-01  2.621838308741E-01  2.685139972867E-01
  2.749969992372E-01  2.816365267868E-01  2.884363590895E-01  2.954003665434E-01
  3.025325129932E-01  3.098368579869E-01  3.173175590861E-01  3.249788742327E-01
  3.328251641722E-01  3.408608949359E-01  3.490906403833E-01  3.575190848047E-01
  3.661510255882E-01  3.749913759500E-01  3.840451677310E-01  3.933175542607E-01
  4.028138132907E-01  4.125393499988E-01  4.224997000652E-01  4.275696964660E-01
  4.327005328236E-01  4.378929392174E-01  4.431476544881E-01  4.484654263419E-01
  4.538470114580E-01  4.592931755955E-01  4.648046937027E-01  4.703823500271E-01
  4.760269382274E-01  4.817392614861E-01  4.875201326240E-01  4.933703742155E-01
  4.992908187060E-01  5.052823085305E-01  5.113456962329E-01  5.174818445877E-01
  5.236916267227E-01  5.299759262434E-01  5.363356373583E-01  5.427716650066E-01
  5.492849249867E-01  5.558763440865E-01  5.625468602156E-01  5.692974225382E-01
  5.761289916086E-01  5.830425395079E-01  5.900390499820E-01  5.971195185818E-01
  6.042849528048E-01  6.115363722385E-01  6.188748087053E-01  6.263013064098E-01
  6.338169220867E-01  6.414227251517E-01  6.491197978536E-01  6.569092354278E-01
  6.647921462529E-01  6.727696520080E-01  6.808428878321E-01  6.890130024860E-01
  6.972811585159E-01  7.056485324181E-01  7.141163148071E-01  7.226857105848E-01
  7.313579391118E-01  7.401342343811E-01  7.490158451937E-01  7.580040353360E-01
  7.671000837601E-01  7.763052847652E-01  7.856209481824E-01  7.950483995606E-01
  8.045889803553E-01  8.142440481195E-01  8.240149766970E-01  8.339031564173E-01
  8.439099942943E-01  8.540369142259E-01  8.642853571966E-01  8.746567814830E-01
  8.851526628607E-01  8.957744948151E-01  9.065237887529E-01  9.174020742179E-01
  9.284108991085E-01  9.395518298978E-01  9.508264518566E-01  9.622363692789E-01
  9.737832057102E-01  9.854686041787E-01  9.972942274289E-01  1.009261758158E+00
  1.021372899256E+00  1.033629374047E+00  1.046032926536E+00  1.058585321654E+00
  1.071288345514E+00  1.084143805660E+00  1.097153531328E+00  1.110319373704E+00
  1.123643206188E+00  1.137126924663E+00  1.150772447759E+00  1.164581717132E+00
  1.178556697737E+00  1.192699378110E+00  1.207011770647E+00  1.221495911895E+00
  1.236153862838E+00  1.250987709192E+00  1.265999561702E+00  1.281191556443E+00
  1.296565855120E+00  1.312124645381E+00  1.327870141126E+00  1.343804582819E+00
  1.359930237813E+00  1.376249400667E+00  1.392764393475E+00  1.409477566197E+00
  1.426391296991E+00  1.443507992555E+00  1.460830088466E+00  1.478360049527E+00
  1.496100370122E+00  1.514053574563E+00  1.532222217458E+00  1.550608884067E+00
  1.569216190676E+00  1.588046784964E+00  1.607103346384E+00  1.626388586540E+00
  1.645905249579E+00  1.665656112574E+00  1.685643985925E+00  1.705871713756E+00
  1.726342174321E+00  1.747058280413E+00  1.768022979778E+00  1.789239255535E+00
  1.810710126601E+00  1.832438648121E+00  1.854427911898E+00  1.876681046841E+00
  1.899201219403E+00  1.921991634036E+00  1.945055533644E+00  1.968396200048E+00
  1.992016954449E+00  2.015921157902E+00  2.040112211797E+00  2.064593558338E+00
  2.089368681038E+00  2.114441105211E+00  2.139814398473E+00  2.165492171255E+00
  2.191478077310E+00  2.217775814238E+00  2.244389124009E+00  2.271321793497E+00
  2.298577655019E+00  2.326160586879E+00  2.354074513922E+00  2.382323408089E+00
  2.410911288986E+00  2.439842224453E+00  2.469120331147E+00  2.498749775121E+00
  2.528734772422E+00  2.559079589691E+00  2.589788544768E+00  2.620866007305E+00
  2.652316399392E+00  2.684144196185E+00  2.716353926539E+00  2.748950173658E+00
  2.781937575742E+00  2.815320826651E+00  2.849104676570E+00  2.883293932689E+00
  2.917893459882E+00  2.952908181400E+00  2.988343079577E+00  3.024203196532E+00
  3.060493634890E+00  3.097219558509E+00  3.134386193211E+00  3.171998827530E+00
  3.210062813460E+00  3.248583567221E+00  3.287566570028E+00  3.327017368868E+00
  3.366941577295E+00  3.407344876222E+00  3.448233014737E+00  3.489611810914E+00
  3.531487152645E+00  3.573864998477E+00  3.616751378458E+00  3.660152395000E+00
  3.704074223740E+00  3.748523114425E+00  3.793505391798E+00  3.839027456499E+00
  3.885095785977E+00  3.931716935409E+00  3.978897538634E+00  4.026644309098E+00
  4.074964040807E+00  4.123863609296E+00  4.173349972608E+00  4.223430172279E+00
  4.274111334347E+00  4.325400670359E+00  4.377305478403E+00  4.429833144144E+00
  4.482991141874E+00  4.536787035576E+00  4.591228480003E+00  4.646323221763E+00
  4.702079100424E+00  4.758504049629E+00  4.815606098225E+00  4.873393371404E+00
  4.931874091860E+00  4.991056580963E+00  5.050949259934E+00  5.111560651053E+00
  5.172899378866E+00  5.234974171413E+00  5.297793861469E+00  5.361367387807E+00
  5.425703796461E+00  5.490812242018E+00  5.556701988923E+00  5.623382412790E+00
  5.690863001743E+00  5.759153357764E+00  5.828263198057E+00  5.898202356434E+00
  5.968980784711E+00  6.040608554128E+00  6.113095856777E+00  6.186453007058E+00
  6.260690443143E+00  6.335818728461E+00  6.411848553202E+00  6.488790735841E+00
  6.566656224671E+00  6.645456099367E+00  6.725201572559E+00  6.805903991430E+00
  6.887574839327E+00  6.970225737399E+00  7.053868446248E+00  7.138514867603E+00
  7.224177046014E+00  7.310867170566E+00  7.398597576613E+00  7.487380747532E+00
  7.577229316503E+00  7.668156068301E+00  7.760173941121E+00  7.853296028414E+00
  7.947535580755E+00  8.042906007724E+00  8.139420879817E+00  8.237093930374E+00
  8.335939057539E+00  8.435970326229E+00  8.537201970144E+00  8.639648393786E+00
  8.743324174511E+00  8.848244064606E+00  8.954422993381E+00  9.061876069301E+00
  9.170618582133E+00  9.280666005119E+00  9.392033997180E+00  9.504738405146E+00
  9.618795266008E+00  9.734220809200E+00  9.851031458910E+00  9.969243836417E+00
  1.008887476245E+01  1.020994125960E+01  1.033246055472E+01  1.045645008138E+01
  1.058192748235E+01  1.070891061214E+01  1.083741753949E+01  1.096746654996E+01
  1.109907614856E+01  1.123226506234E+01  1.136705224309E+01  1.150345687001E+01
  1.164149835245E+01  1.178119633268E+01  1.192257068867E+01  1.206564153693E+01
  1.221042923538E+01  1.235695438620E+01  1.250523783884E+01  1.265530069290E+01
  1.280716430122E+01  1.296085027283E+01  1.311638047610E+01  1.327377704182E+01
  1.343306236632E+01  1.359425911472E+01  1.375739022409E+01  1.392247890678E+01
  1.408954865366E+01  1.425862323751E+01  1.442972671636E+01  1.460288343695E+01
  1.477811803820E+01  1.495545545465E+01  1.513492092011E+01  1.531653997115E+01
  1.550033845081E+01  1.568634251222E+01  1.587457862236E+01  1.606507356583E+01
  1.625785444862E+01  1.645294870200E+01  1.665038408643E+01  1.685018869546E+01
  1.705239095981E+01  1.725701965133E+01  1.746410388714E+01  1.767367313379E+01
  1.788575721140E+01  1.810038629793E+01  1.831759093351E+01  1.853740202471E+01
  1.875985084901E+01  1.898496905919E+01  1.921278868790E+01  1.944334215216E+01
  1.967666225798E+01  1.991278220508E+01  2.015173559154E+01  2.039355641864E+01
  2.063827909566E+01  2.088593844481E+01  2.113656970615E+01  2.139020854262E+01
  2.164689104513E+01  2.190665373768E+01  2.216953358253E+01  2.243556798552E+01
  2.270479480134E+01  2.297725233896E+01  2.325297936703E+01  2.353201511943E+01
  2.381439930087E+01  2.410017209248E+01  2.438937415759E+01  2.468204664748E+01
  2.497823120725E+01  2.527796998173E+01  2.558130562151E+01  2.588828128897E+01
  2.619894066444E+01  2.651332795241E+01  2.683148788784E+01  2.715346574250E+01
  2.747930733141E+01  2.780905901938E+01  2.814276772762E+01  2.848048094035E+01
  2.882224671163E+01  2.916811367217E+01  2.951813103624E+01  2.987234860867E+01
  3.023081679198E+01  3.059358659348E+01  3.096070963260E+01  3.133223814819E+01
  3.170822500597E+01  3.208872370604E+01  3.247378839052E+01  3.286347385120E+01
  3.325783553742E+01  3.365692956387E+01  3.406081271863E+01  3.446954247126E+01
  3.488317698091E+01  3.530177510468E+01  3.572539640594E+01  3.615410116281E+01
  3.658795037676E+01  3.702700578128E+01  3.747132985066E+01  3.792098580887E+01
  3.837603763857E+01  3.883655009024E+01  3.930258869132E+01  3.977421975562E+01
  4.025151039268E+01  4.073452851739E+01  4.122334285960E+01  4.171802297392E+01
  4.221863924961E+01  4.272526292060E+01  4.323796607565E+01  4.375682166856E+01
  4.428190352858E+01
</grid-data>
</grid>
<valence-charge total-charge="3" is-unscreening-charge="yes"
 rescaled-to-z-pseudo="no">
<radfunc>
<data npts="457">
  3.395987683490E-02  3.396619948045E-02  3.398510082974E-02  3.401663802973E-02
  3.406049238983E-02  3.411816841708E-02  3.419169597984E-02  3.427591938438E-02
  3.437065549450E-02  3.448118111375E-02  3.460582524811E-02  3.474138098583E-02
  3.490531456535E-02  3.507665212983E-02  3.527893655134E-02  3.548113577478E-02
  3.571419473042E-02  3.593533089191E-02  3.618419045227E-02  3.646421079029E-02
  3.677924618869E-02  3.705937117344E-02  3.736710857371E-02  3.770513825609E-02
  3.807639266239E-02  3.848407941539E-02  3.893170580221E-02  3.929592898680E-02
  3.968651411152E-02  4.010532756190E-02  4.055436302536E-02  4.103574973884E-02
  4.155176125889E-02  4.210482479383E-02  4.269753114137E-02  4.333264527952E-02
  4.401311766350E-02  4.474209628532E-02  4.525667934962E-02  4.579535860510E-02
  4.635923008170E-02  4.694943799685E-02  4.756717685064E-02  4.821369361565E-02
  4.889029002469E-02  4.959832495914E-02  5.033921693994E-02  5.111444672239E-02
  5.192555999490E-02  5.277417018049E-02  5.366196133816E-02  5.459069115945E-02
  5.556219405324E-02  5.657838430938E-02  5.764125932890E-02  5.875290290561E-02
  5.991548854058E-02  6.113128276790E-02  6.240264846663E-02  6.373204813120E-02
  6.512204706977E-02  6.657531649849E-02  6.809463649905E-02  6.968289880761E-02
  7.134310940652E-02  7.307839089516E-02  7.489198462484E-02  7.582919444480E-02
  7.678725259414E-02  7.776659844728E-02  7.876767911637E-02  7.979094949332E-02
  8.083687229006E-02  8.190591807775E-02  8.299856532563E-02  8.411530044045E-02
  8.525661780746E-02  8.642301983408E-02  8.761501699736E-02  8.883312789664E-02
  9.007787931264E-02  9.134980627433E-02  9.264945213520E-02  9.397736865997E-02
  9.533411612340E-02  9.672026342205E-02  9.813638820025E-02  9.958307699092E-02
  1.010609253715E-01  1.025705381353E-01  1.041125294769E-01  1.056875231914E-01
  1.072961528843E-01  1.089390621896E-01  1.106169049911E-01  1.123303456424E-01
  1.140800591772E-01  1.158667315018E-01  1.176910595589E-01  1.195537514488E-01
  1.214555264942E-01  1.233971152286E-01  1.253792592892E-01  1.274027111887E-01
  1.294682339405E-01  1.315766005053E-01  1.337285930258E-01  1.359250018121E-01
  1.381666240362E-01  1.404542620908E-01  1.427887215649E-01  1.451708087847E-01
  1.476013278659E-01  1.500810772211E-01  1.526108454644E-01  1.551914066541E-01
  1.578235148152E-01  1.605078976826E-01  1.632452496107E-01  1.660362235971E-01
  1.688814223735E-01  1.717813885251E-01  1.747365936087E-01  1.777474262496E-01
  1.808141792133E-01  1.839370354611E-01  1.871160532198E-01  1.903511501138E-01
  1.936420864320E-01  1.969884476272E-01  2.003896261717E-01  2.038448029226E-01
  2.073529281782E-01  2.109127026388E-01  2.145225585139E-01  2.181806410471E-01
  2.218847907561E-01  2.256325267091E-01  2.294210311761E-01  2.332471360072E-01
  2.371073110944E-01  2.409976552670E-01  2.449138899573E-01  2.488513559435E-01
  2.528050134357E-01  2.567694457125E-01  2.607388664468E-01  2.647071307677E-01
  2.686677500058E-01  2.726139099510E-01  2.765384923269E-01  2.804340990485E-01
  2.842930786946E-01  2.881075544892E-01  2.918694529648E-01  2.955705323691E-01
  2.992024098021E-01  3.027565860244E-01  3.062244668820E-01  3.095973803554E-01
  3.128665883615E-01  3.160232926400E-01  3.190586343264E-01  3.219636871735E-01
  3.247294448114E-01  3.273468029463E-01  3.298065379606E-01  3.320992839850E-01
  3.342155111409E-01  3.361455082612E-01  3.378793739607E-01  3.394070203889E-01
  3.407181943199E-01  3.418025203584E-01  3.426495709041E-01  3.432489670875E-01
  3.435905140974E-01  3.436643731655E-01  3.434612709147E-01  3.429727448607E-01
  3.421914216148E-01  3.411113218632E-01  3.397281836349E-01  3.380397928708E-01
  3.360463080896E-01  3.337505642233E-01  3.311583397035E-01  3.282783689530E-01
  3.251214342700E-01  3.216988781467E-01  3.180222829756E-01  3.141036885051E-01
  3.099554141032E-01  3.055900285671E-01  3.010202990855E-01  2.962591443818E-01
  2.913195898981E-01  2.862147249143E-01  2.809576615255E-01  2.755614953977E-01
  2.700392682303E-01  2.644039318702E-01  2.586683140370E-01  2.528450856368E-01
  2.469467296569E-01  2.409855116464E-01  2.349734517985E-01  2.289222986602E-01
  2.228435044982E-01  2.167482023539E-01  2.106471848208E-01  2.045508845773E-01
  1.984693567004E-01  1.924122627871E-01  1.863888568965E-01  1.804079733258E-01
  1.744780162198E-01  1.686069510066E-01  1.628022976461E-01  1.570711256646E-01
  1.514200509439E-01  1.458552342231E-01  1.403823812631E-01  1.350067446185E-01
  1.297331269509E-01  1.245658858151E-01  1.195089398420E-01  1.145657762370E-01
  1.097394595092E-01  1.050326413439E-01  1.004475715255E-01  9.598610981984E-02
  9.164973871944E-02  8.743957695833E-02  8.335639370046E-02  7.940062330782E-02
  7.557238059527E-02  7.187147648074E-02  6.829743394218E-02  6.484950419629E-02
  6.152668301432E-02  5.832772709867E-02  5.525117044441E-02  5.229534061590E-02
  4.945837487309E-02  4.673823608702E-02  4.413272838936E-02  4.163951250569E-02
  3.925612072779E-02  3.697997148526E-02  3.480838348203E-02  3.273858936809E-02
  3.076774892179E-02  2.889296172225E-02  2.711127929553E-02  2.541971672216E-02
  2.381526369649E-02  2.229489503160E-02  2.085558060556E-02  1.949429474710E-02
  1.820802506021E-02  1.699378068836E-02  1.584860002235E-02  1.476955784947E-02
  1.375377195395E-02  1.279840916970E-02  1.190069089121E-02  1.105789804920E-02
  1.026737555819E-02  9.526536244696E-03  8.832864266166E-03  8.183918032167E-03
  7.577332641323E-03  7.010821849122E-03  6.482179583623E-03  5.989281027960E-03
  5.530083290240E-03  5.102625683115E-03  4.705029636750E-03  4.335498270141E-03
  3.992315646731E-03  3.673845740994E-03  3.378531143055E-03  3.104891528581E-03
  2.851521921004E-03  2.617090772745E-03  2.400337891408E-03  2.200072236064E-03
  2.015169607638E-03  1.844570256166E-03  1.687276426330E-03  1.542349861204E-03
  1.408909282572E-03  1.286127864642E-03  1.173230716355E-03  1.069492385909E-03
  9.742343995610E-04  8.868228452664E-04  8.066660102682E-04  7.332120803588E-04
  6.659469072611E-04  6.043918493577E-04  5.481016898819E-04  4.966626356600E-04
  4.496903985622E-04  4.068283609788E-04  3.677458258850E-04  3.321363513926E-04
  2.997161691022E-04  2.702226850600E-04  2.434130616915E-04  2.190628787159E-04
  1.969648707396E-04  1.769277389828E-04  1.587750343992E-04  1.423441093030E-04
  1.274851345174E-04  1.140601789948E-04  1.019423488325E-04  9.101498261242E-05
  8.117090002021E-05  7.231170075696E-05  6.434711082571E-05  5.719437336627E-05
  5.077768131295E-05  4.502764926169E-05  3.988082205234E-05  3.527921769548E-05
  3.116990239972E-05  2.750459558218E-05  2.423930287054E-05  2.133397522845E-05
  1.875219245523E-05  1.646086942545E-05  1.442998354359E-05  1.263232199183E-05
  1.104324744676E-05  9.640481030988E-06  8.403901350844E-06  7.315358548976E-06
  6.358502373468E-06  5.518623331446E-06  4.782506056549E-06  4.138294075923E-06
  3.575365214205E-06  3.084216919560E-06  2.656360840747E-06  2.284226024666E-06
  1.961070141406E-06  1.680898178608E-06  1.438388079512E-06  1.228822829444E-06
  1.048028524099E-06  8.923179799236E-07  7.584394724635E-07  6.435302127258E-07
  5.450741947424E-07  4.608640695144E-07  3.889667216016E-07  3.276922447782E-07
  2.755660324929E-07  2.313037173796E-07  1.937887117879E-07  1.620521182693E-07
  1.352547951747E-07  1.126713780042E-07  9.367607190955E-08  7.773004478560E-08
  6.437026371483E-08  5.319963014198E-08  4.387828107456E-08  3.611593483011E-08
  2.966517039771E-08  2.431553936186E-08  1.988841856692E-08  1.623252029728E-08
  1.321998473292E-08  1.074298683224E-08  8.710796618385E-09  7.047238126030E-09
  5.688498027832E-09  4.581240231378E-09  3.680987544315E-09  2.950735875906E-09
  2.359770404462E-09  1.882656719609E-09  1.498383172877E-09  1.189633566127E-09
  9.421719002591E-10  7.443232212515E-10  5.865366602670E-10  4.610185920072E-10
  3.614254517627E-10  2.826071768595E-10  2.203934911073E-10  1.714163489166E-10
  1.329628151399E-10  1.028534923633E-10  7.934233302818E-11  6.103430194791E-11
  4.681789690840E-11  3.581000144048E-11  2.731094385312E-11  2.076797859984E-11
  1.574569751038E-11  1.190212603525E-11  8.969469349787E-12  6.738650184507E-12
  5.046929202369E-12  3.768023675408E-12  2.804244655494E-12  2.080259860905E-12
  1.538161776183E-12  1.133580287773E-12  8.326285309408E-13  6.095111996937E-13
  4.446578178337E-13  3.232706162594E-13  2.341987511313E-13  1.690685088173E-13
  1.216136155312E-13  8.716142094263E-14  6.224007169272E-14  4.427926129072E-14
  3.138309191546E-14  2.215830348229E-14  1.558485589325E-14  1.091878783739E-14
  7.619579600319E-15  5.296047639620E-15  3.666199706394E-15  2.527566444126E-15
  1.735360961550E-15  1.186468340537E-15  8.077549282272E-16  5.475679055919E-16
  3.695802570560E-16  2.483528675856E-16  1.661484069590E-16  1.106538267765E-16
  7.335949394249E-17  4.841076371586E-17  3.179794433403E-17  2.078754171791E-17
  1.352475331702E-17  8.756942735665E-18  5.642181370590E-18  3.617320371373E-18
  2.307521971717E-18  1.464524387547E-18  9.247225576216E-19  5.808468298087E-19
  3.629247698006E-19  0.000000000000E+00  0.000000000000E+00  0.000000000000E+00
  0.000000000000E+00
</data>
</radfunc>
</valence-charge>
<pseudocore-charge matching-radius="1.40947756620"
 number-of-continuous-derivatives="4">
<annotation model-charge-form="Teter function with specified parameters" />
<radfunc>
<data npts="290">
  1.674679999547E+00  1.674639704560E+00  1.674519240346E+00  1.674318234770E+00
  1.674038705912E+00  1.673671044671E+00  1.673202282820E+00  1.672665258426E+00
  1.672061110594E+00  1.671356148073E+00  1.670560977614E+00  1.669696010931E+00
  1.668649714352E+00  1.667555870486E+00  1.666264081460E+00  1.664972438866E+00
  1.663483184559E+00  1.662069654090E+00  1.660478388489E+00  1.658687231807E+00
  1.656671317934E+00  1.654878127532E+00  1.652907484204E+00  1.650742058406E+00
  1.648362876790E+00  1.645749176536E+00  1.642878248994E+00  1.640541400463E+00
  1.638034637235E+00  1.635345880752E+00  1.632462236306E+00  1.629369944489E+00
  1.626054330825E+00  1.622499753694E+00  1.618689550724E+00  1.614605983850E+00
  1.610230183348E+00  1.605542091159E+00  1.602232733791E+00  1.598768507531E+00
  1.595142516579E+00  1.591347593317E+00  1.587376291226E+00  1.583220878023E+00
  1.578873329087E+00  1.574325321240E+00  1.569568226950E+00  1.564593109055E+00
  1.559390716088E+00  1.553951478305E+00  1.548265504533E+00  1.542322579960E+00
  1.536112164994E+00  1.529623395343E+00  1.522845083476E+00  1.515765721635E+00
  1.508373486583E+00  1.500656246297E+00  1.492601568824E+00  1.484196733521E+00
  1.475428744958E+00  1.466284349723E+00  1.456750056438E+00  1.446812159282E+00
  1.436456765341E+00  1.425669826132E+00  1.414437173645E+00  1.408649254708E+00
  1.402744561296E+00  1.396721307889E+00  1.390577710145E+00  1.384311986656E+00
  1.377922360810E+00  1.371407062755E+00  1.364764331460E+00  1.357992416893E+00
  1.351089582308E+00  1.344054106640E+00  1.336884287029E+00  1.329578441454E+00
  1.322134911499E+00  1.314552065241E+00  1.306828300273E+00  1.298962046852E+00
  1.290951771189E+00  1.282795978878E+00  1.274493218458E+00  1.266042085126E+00
  1.257441224586E+00  1.248689337054E+00  1.239785181401E+00  1.230727579455E+00
  1.221515420442E+00  1.212147665585E+00  1.202623352849E+00  1.192941601842E+00
  1.183101618854E+00  1.173102702056E+00  1.162944246834E+00  1.152625751274E+00
  1.142146821783E+00  1.131507178844E+00  1.120706662908E+00  1.109745240407E+00
  1.098623009888E+00  1.087340208259E+00  1.075897217139E+00  1.064294569301E+00
  1.052532955204E+00  1.040613229591E+00  1.028536418152E+00  1.016303724232E+00
  1.003916535565E+00  9.913764310340E-01  9.786851874097E-01  9.658447860807E-01
  9.528574197297E-01  9.397254989448E-01  9.264516587383E-01  9.130387649461E-01
  8.994899204817E-01  8.858084714130E-01  8.719980128321E-01  8.580623944839E-01
  8.440057261186E-01  8.298323825314E-01  8.155470082502E-01  8.011545218311E-01
  7.866601197197E-01  7.720692796335E-01  7.573877634203E-01  7.426216193454E-01
  7.277771837593E-01  7.128610820958E-01  6.978802291491E-01  6.828418285792E-01
  6.677533715914E-01  6.526226347383E-01  6.374576767891E-01  6.222668346140E-01
  6.070587180302E-01  5.918422035567E-01  5.766264270272E-01  5.614207750106E-01
  5.462348749919E-01  5.310785842673E-01  5.159619775121E-01  5.008953329810E-01
  4.858891173082E-01  4.709539688752E-01  4.561006797234E-01  4.413401759925E-01
  4.266834968728E-01  4.121417720686E-01  3.977261977765E-01  3.834480111915E-01
  3.693184635657E-01  3.553487918527E-01  3.415501889835E-01  3.279337728311E-01
  3.145105539352E-01  3.012914020694E-01  2.882870117505E-01  2.755078668014E-01
  2.629642040962E-01  2.506659766291E-01  2.386228160688E-01  2.268439949697E-01
  2.153383888330E-01  2.041144382225E-01  1.931801111556E-01  1.825428660066E-01
  1.722096151712E-01  1.621866897537E-01  1.524798055511E-01  1.430940306172E-01
  1.340337546987E-01  1.253026608396E-01  1.169036994553E-01  1.088390651775E-01
  1.011101767693E-01  9.371766040486E-02  8.666133659622E-02  7.994021104194E-02
  7.355246965008E-02  6.749547797059E-02  6.176578524532E-02  5.635913325418E-02
  5.127047010186E-02  4.649396905067E-02  4.202305246201E-02  3.785042086177E-02
  3.396808709390E-02  3.036741547189E-02  2.703916578033E-02  2.397354191877E-02
  2.116024491857E-02  1.858853000069E-02  1.624726728006E-02  1.412500566061E-02
  1.221003940533E-02  1.049047681020E-02  8.954310358713E-03  7.589487688268E-03
  6.383982660964E-03  5.325865801087E-03  4.403373340958E-03  3.604974107007E-03
  2.919433479986E-03  2.335873677990E-03  1.843829639204E-03  1.433299823388E-03
  1.094791307294E-03  8.193586193359E-04  5.986358423631E-04  4.248616095530E-04
  2.908967258726E-04  1.902342647048E-04  1.170021139719E-04  6.595807601948E-05
  3.247775785747E-05  1.253562001855E-05  2.679679977582E-06  4.863262225276E-10
  2.095089199306E-06  7.026827357862E-06  1.328182957946E-05  1.972318463824E-05
  2.554376767185E-05  3.021871920973E-05  3.345855536410E-05  3.516384326492E-05
  3.538230526209E-05  3.426912019512E-05  3.205107260097E-05  2.899506452102E-05
  2.538135390594E-05  2.148172361465E-05  1.754262139560E-05  1.377315016647E-05
  1.033763566769E-05  7.352361317700E-06  4.885943562979E-06  2.962730154705E-06
  1.568542503303E-06  6.580541367374E-07  1.631013523374E-07  1.258748240891E-09
  8.407905007287E-08  3.244894182165E-07  6.429496057595E-07  9.721040536593E-07
  1.259792496278E-06  1.470413735699E-06  1.584756877207E-06  1.598516132650E-06
  1.519783154177E-06  1.365860338323E-06  1.159757325660E-06  9.267210459737E-07
  6.911095605245E-07  4.738563318029E-07  2.906910212304E-07  1.511934621063E-07
  5.866773783629E-08  1.074184775755E-08  5.328467859525E-10  1.817346161398E-08
  5.247752918660E-08  9.252893764447E-08  1.290099763885E-07  1.551353624790E-07
  1.671208152298E-07  1.641816826682E-07  1.481192407306E-07  1.226021045779E-07
  9.228170894445E-08  6.189063153455E-08  3.546034233169E-08  1.576360970692E-08
  4.041885391723E-09  2.705543324006E-11  0.000000000000E+00  0.000000000000E+00
  0.000000000000E+00  0.000000000000E+00  0.000000000000E+00  0.000000000000E+00
  0.000000000000E+00  0.000000000000E+00
</data>
</radfunc>
</pseudocore-charge>
<semilocal-potentials set="scalar_relativistic">
<slps n="3" l="s" rc="1.76802297978" eref="-0.283522852833">
<radfunc>
<data npts="290">
  4.029743927276E+00  4.029679926731E+00  4.029488056493E+00  4.029166035879E+00
  4.028714336845E+00  4.028113363875E+00  4.027335867127E+00  4.026429686794E+00
  4.025390592614E+00  4.024151935180E+00  4.022721148975E+00  4.021124557277E+00
  4.019137669701E+00  4.016995957496E+00  4.014382530297E+00  4.011679221798E+00
  4.008451679936E+00  4.005279914448E+00  4.001584693395E+00  3.997269498665E+00
  3.992218504754E+00  3.987555381894E+00  3.982249076643E+00  3.976202615021E+00
  3.969303858316E+00  3.961423257711E+00  3.952411352014E+00  3.944807390737E+00
  3.936388821090E+00  3.927064814218E+00  3.916734871475E+00  3.905288010522E+00
  3.892601942002E+00  3.878542254182E+00  3.862961627937E+00  3.845699110260E+00
  3.826579481076E+00  3.805412755470E+00  3.790063688548E+00  3.773649470208E+00
  3.756102622040E+00  3.737352746737E+00  3.717326619341E+00  3.695948319681E+00
  3.673139411185E+00  3.648819171410E+00  3.622904879733E+00  3.595312167620E+00
  3.565955436725E+00  3.534748349780E+00  3.501604398716E+00  3.466437553727E+00
  3.429162996017E+00  3.389697935690E+00  3.347962514651E+00  3.303880792457E+00
  3.257381810751E+00  3.208400729212E+00  3.156880022908E+00  3.102770727463E+00
  3.046033714665E+00  2.986640977062E+00  2.924576895740E+00  2.859839461063E+00
  2.792441411709E+00  2.722411253073E+00  2.649794112227E+00  2.612534234596E+00
  2.574652383404E+00  2.536159119655E+00  2.497066115572E+00  2.457386149117E+00
  2.417133092562E+00  2.376321894739E+00  2.334968556638E+00  2.293090100015E+00
  2.250704528730E+00  2.207830782555E+00  2.164488683225E+00  2.120698872565E+00
  2.076482742581E+00  2.031862357446E+00  1.986860367402E+00  1.941499914656E+00
  1.895804531437E+00  1.849798030488E+00  1.803504388324E+00  1.756947621743E+00
  1.710151658138E+00  1.663140200323E+00  1.615936586679E+00  1.568563647555E+00
  1.521043559024E+00  1.473397695193E+00  1.425646480430E+00  1.377809242995E+00
  1.329904071719E+00  1.281947677485E+00  1.233955261414E+00  1.185940391765E+00
  1.137914891686E+00  1.089888740009E+00  1.041869987421E+00  9.938646903193E-01
  9.458768647675E-01  8.979084629034E-01  8.499593741595E-01  8.020274535596E-01
  7.541085792492E-01  7.061967412544E-01  6.582841632442E-01  6.103614588086E-01
  5.624178234331E-01  5.144412629618E-01  4.664188588894E-01  4.183370703043E-01
  3.701820717276E-01  3.219401254442E-01  2.735979862236E-01  2.251433355687E-01
  1.765652418291E-01  1.278546416671E-01  7.900483749772E-02  3.001200464446E-02
 -1.912429893673E-02 -6.840062836462E-02 -1.178091617895E-01 -1.673372341654E-01
 -2.169669050685E-01 -2.666745713321E-01 -3.164306356558E-01 -3.661992425819E-01
 -4.159380932399E-01 -4.655983500323E-01 -5.151246419859E-01 -5.644551806977E-01
 -6.135219957480E-01 -6.622512970455E-01 -7.105639698205E-01 -7.583762058843E-01
 -8.056002723060E-01 -8.521454158536E-01 -8.979188983893E-01 -9.428271549385E-01
 -9.867770623949E-01 -1.029677302829E+00 -1.071439801192E+00 -1.111981212926E+00
 -1.151224432681E+00 -1.189100091181E+00 -1.225548003239E+00 -1.260518526406E+00
 -1.293973786608E+00 -1.325888724885E+00 -1.356251917930E+00 -1.385066124953E+00
 -1.412348514581E+00 -1.438130528318E+00 -1.462457341719E+00 -1.485386891070E+00