<?xml version="1.0" encoding="UTF-8" ?>
<psml version="1.1" energy_unit="hartree" length_unit="bohr"
 uuid="c9340b90-1d5f-11e8-6a04-5c76ff72640d"
 xmlns="http://esl.cecam.org/PSML/ns/1.1">
<provenance creator="ONCVPSP-3.3.0+psml-3.3.0-73 (scalar-relativistic)"
 date="2018-03-01">
<annotation action="semilocal-pseudopotential-generation"
 action-cont="projectors-generation" />
<input-file name="oncvpsp-input">
<![CDATA[# atsym z nc nv iexc psfile
Co 27 3 4 -116133 upf
# n l f
1 0 2.0
2 0 2.0
2 1 6.0
3 0 2.0
3 1 6.0
3 2 7.0
4 0 2.0
# lmax
2
# l rc ep ncon nbas qcut
0 1.25 0.0 4 7 9.3
1 1.32 0.0 4 7 9.7
2 1.65 0.0 4 7  9.5
# lloc lpopt rc5 dvloc0
4 5 1.2 0.0
# l nproj debl
0 2 0.8
1 2 0.8
2 2 0.8
# icmod fcfact
3 6 1.8
# epsh1 epsh2 depsh
-12.0 12.0 0.02
# rlmax drl
6.0 0.01
 0
]]>
</input-file>
</provenance>
<pseudo-atom-spec atomic-label="Co" atomic-number="27" z-pseudo="17"
 flavor="Hamann&apos;s oncvpsp" relativity="scalar" spin-dft="no"
 core-corrections="yes">
<annotation pseudo-energy="-142.090313995" />
<exchange-correlation>
<annotation oncvpsp-xc-code="-116133" oncvpsp-xc-type="libxc-interface" />
<libxc-info number-of-functionals="2">
<functional name="Perdew, Burke &amp; Ernzerhof SOL (GGA)" type="exchange"
 id="116" />
<functional name="Perdew, Burke &amp; Ernzerhof SOL (GGA)" type="correlation"
 id="133" />
</libxc-info>
</exchange-correlation>
<valence-configuration total-valence-charge="17">
<shell n="3" l="s" occupation="2" />
<shell n="3" l="p" occupation="6" />
<shell n="3" l="d" occupation="7" />
<shell n="4" l="s" occupation="2" />
</valence-configuration>
</pseudo-atom-spec>
<grid npts="457">
<annotation type="sampled from oncvpsp log grid"
 recipe="r(i:1..N) = r1*exp(a*(i-1)) + r=0; resampled"
 recipe-cont="r1: scale; a: step" scale="0.185185185185E-04"
 step="0.119285708653E-01" delta="0.500000000000E-02" rmax="44.1384555144" />
<grid-data>
  0.000000000000E+00  5.040192420950E-03  1.006738882075E-02  1.510268858140E-02
  2.010881910914E-02  2.522413632811E-02  3.052843244760E-02  3.564931321503E-02
  4.113555087463E-02  4.634708694971E-02  5.159968556889E-02  5.676637413542E-02
  6.245040443473E-02  6.788891108236E-02  7.292592018673E-02  7.833664953955E-02
  8.414882726703E-02  8.932039405154E-02  9.480979180144E-02  1.006365535764E-01
  1.068214128868E-01  1.120418749708E-01  1.175174659061E-01  1.232606540777E-01
  1.292845172121E-01  1.356027721566E-01  1.422298061135E-01  1.474117681829E-01
  1.527825284489E-01  1.583489655335E-01  1.641182086729E-01  1.700976468475E-01
  1.762949382462E-01  1.827180200740E-01  1.893751187181E-01  1.962747602834E-01
  2.034257815129E-01  2.108373411047E-01  2.159277978683E-01  2.211411586201E-01
  2.264803907538E-01  2.319485333081E-01  2.375486986963E-01  2.432840744777E-01
  2.491579251718E-01  2.551735941172E-01  2.613345053736E-01  2.676441656713E-01
  2.741061664073E-01  2.807241856890E-01  2.875019904283E-01  2.944434384852E-01
  3.015524808640E-01  3.088331639619E-01  3.162896318726E-01  3.239261287446E-01
  3.317470011970E-01  3.397567007939E-01  3.479597865779E-01  3.563609276650E-01
  3.649649059025E-01  3.737766185906E-01  3.828010812699E-01  3.920434305761E-01
  4.015089271639E-01  4.112029587013E-01  4.211310429362E-01  4.261846154515E-01
  4.312988308369E-01  4.364744168069E-01  4.417121098086E-01  4.470126551263E-01
  4.523768069878E-01  4.578053286717E-01  4.632989926157E-01  4.688585805271E-01
  4.744848834935E-01  4.801787020954E-01  4.859408465205E-01  4.917721366788E-01
  4.976734023189E-01  5.036454831467E-01  5.096892289445E-01  5.158054996918E-01
  5.219951656881E-01  5.282591076764E-01  5.345982169685E-01  5.410133955721E-01
  5.475055563190E-01  5.540756229948E-01  5.607245304708E-01  5.674532248364E-01
  5.742626635345E-01  5.811538154969E-01  5.881276612828E-01  5.951851932182E-01
  6.023274155368E-01  6.095553445233E-01  6.168700086576E-01  6.242724487615E-01
  6.317637181466E-01  6.393448827644E-01  6.470170213575E-01  6.547812256138E-01
  6.626386003212E-01  6.705902635250E-01  6.786373466873E-01  6.867809948476E-01
  6.950223667858E-01  7.033626351872E-01  7.118029868094E-01  7.203446226511E-01
  7.289887581230E-01  7.377366232204E-01  7.465894626991E-01  7.555485362515E-01
  7.646151186865E-01  7.737905001107E-01  7.830759861121E-01  7.924728979454E-01
  8.019825727207E-01  8.116063635934E-01  8.213456399565E-01  8.312017876360E-01
  8.411762090876E-01  8.512703235967E-01  8.614855674798E-01  8.718233942896E-01
  8.822852750211E-01  8.928726983213E-01  9.035871707012E-01  9.144302167496E-01
  9.254033793506E-01  9.365082199028E-01  9.477463185416E-01  9.591192743641E-01
  9.706287056565E-01  9.822762501244E-01  9.940635651259E-01  1.005992327907E+00
  1.018064235842E+00  1.030281006672E+00  1.042644378752E+00  1.055156111297E+00
  1.067817984633E+00  1.080631800449E+00  1.093599382054E+00  1.106722574639E+00
  1.120003245534E+00  1.133443284481E+00  1.147044603895E+00  1.160809139141E+00
  1.174738848811E+00  1.188835714997E+00  1.203101743577E+00  1.217538964500E+00
  1.232149432074E+00  1.246935225258E+00  1.261898447962E+00  1.277041229337E+00
  1.292365724089E+00  1.307874112778E+00  1.323568602132E+00  1.339451425357E+00
  1.355524842461E+00  1.371791140571E+00  1.388252634258E+00  1.404911665869E+00
  1.421770605859E+00  1.438831853130E+00  1.456097835367E+00  1.473571009392E+00
  1.491253861504E+00  1.509148907842E+00  1.527258694736E+00  1.545585799073E+00
  1.564132828662E+00  1.582902422606E+00  1.601897251677E+00  1.621120018697E+00
  1.640573458922E+00  1.660260340429E+00  1.680183464514E+00  1.700345666088E+00
  1.720749814081E+00  1.741398811850E+00  1.762295597592E+00  1.783443144764E+00
  1.804844462501E+00  1.826502596051E+00  1.848420627203E+00  1.870601674730E+00
  1.893048894827E+00  1.915765481564E+00  1.938754667343E+00  1.962019723351E+00
  1.985563960032E+00  2.009390727552E+00  2.033503416283E+00  2.057905457278E+00
  2.082600322765E+00  2.107591526639E+00  2.132882624958E+00  2.158477216458E+00
  2.184378943055E+00  2.210591490372E+00  2.237118588256E+00  2.263964011315E+00
  2.291131579451E+00  2.318625158405E+00  2.346448660305E+00  2.374606044229E+00
  2.403101316760E+00  2.431938532561E+00  2.461121794952E+00  2.490655256491E+00
  2.520543119569E+00  2.550789637004E+00  2.581399112648E+00  2.612375902000E+00
  2.643724412824E+00  2.675449105778E+00  2.707554495047E+00  2.740045148987E+00
  2.772925690775E+00  2.806200799065E+00  2.839875208653E+00  2.873953711157E+00
  2.908441155691E+00  2.943342449559E+00  2.978662558954E+00  3.014406509662E+00
  3.050579387777E+00  3.087186340431E+00  3.124232576516E+00  3.161723367434E+00
  3.199664047843E+00  3.238060016417E+00  3.276916736614E+00  3.316239737454E+00
  3.356034614303E+00  3.396307029675E+00  3.437062714031E+00  3.478307466599E+00
  3.520047156199E+00  3.562287722073E+00  3.605035174738E+00  3.648295596835E+00
  3.692075143997E+00  3.736380045725E+00  3.781216606273E+00  3.826591205549E+00
  3.872510300015E+00  3.918980423615E+00  3.966008188699E+00  4.013600286963E+00
  4.061763490407E+00  4.110504652292E+00  4.159830708119E+00  4.209748676617E+00
  4.260265660736E+00  4.311388848665E+00  4.363125514849E+00  4.415483021027E+00
  4.468468817279E+00  4.522090443087E+00  4.576355528404E+00  4.631271794745E+00
  4.686847056281E+00  4.743089220957E+00  4.800006291608E+00  4.857606367108E+00
  4.915897643513E+00  4.974888415235E+00  5.034587076218E+00  5.095002121133E+00
  5.156142146586E+00  5.218015852345E+00  5.280632042573E+00  5.343999627084E+00
  5.408127622609E+00  5.473025154080E+00  5.538701455929E+00  5.605165873401E+00
  5.672427863881E+00  5.740496998248E+00  5.809382962227E+00  5.879095557774E+00
  5.949644704467E+00  6.021040440921E+00  6.093292926212E+00  6.166412441326E+00
  6.240409390622E+00  6.315294303310E+00  6.391077834949E+00  6.467770768969E+00
  6.545384018196E+00  6.623928626415E+00  6.703415769932E+00  6.783856759171E+00
  6.865263040281E+00  6.947646196764E+00  7.031017951125E+00  7.115390166539E+00
  7.200774848537E+00  7.287184146720E+00  7.374630356480E+00  7.463125920758E+00
  7.552683431807E+00  7.643315632989E+00  7.735035420585E+00  7.827855845632E+00
  7.921790115779E+00  8.016851597169E+00  8.113053816335E+00  8.210410462131E+00
  8.308935387676E+00  8.408642612329E+00  8.509546323676E+00  8.611660879561E+00
  8.715000810115E+00  8.819580819837E+00  8.925415789675E+00  9.032520779151E+00
  9.140911028501E+00  9.250601960843E+00  9.361609184373E+00  9.473948494585E+00
  9.587635876520E+00  9.702687507039E+00  9.819119757123E+00  9.936949194208E+00
  1.005619258454E+01  1.017686689555E+01  1.029898929830E+01  1.042257716988E+01
  1.054764809592E+01  1.067421987307E+01  1.080231051155E+01  1.093193823768E+01
  1.106312149654E+01  1.119587895450E+01  1.133022950195E+01  1.146619225597E+01
  1.160378656304E+01  1.174303200180E+01  1.188394838582E+01  1.202655576645E+01
  1.217087443565E+01  1.231692492888E+01  1.246472802802E+01  1.261430476436E+01
  1.276567642153E+01  1.291886453859E+01  1.307389091305E+01  1.323077760401E+01
  1.338954693526E+01  1.355022149848E+01  1.371282415646E+01  1.387737804634E+01
  1.404390658290E+01  1.421243346189E+01  1.438298266343E+01  1.455557845540E+01
  1.473024539686E+01  1.490700834162E+01  1.508589244172E+01  1.526692315102E+01
  1.545012622884E+01  1.563552774358E+01  1.582315407650E+01  1.601303192542E+01
  1.620518830853E+01  1.639965056823E+01  1.659644637505E+01  1.679560373155E+01
  1.699715097633E+01  1.720111678804E+01  1.740753018950E+01  1.761642055177E+01
  1.782781759840E+01  1.804175140958E+01  1.825825242649E+01  1.847735145561E+01
  1.869907967308E+01  1.892346862915E+01  1.915055025270E+01  1.938035685574E+01
  1.961292113800E+01  1.984827619166E+01  2.008645550596E+01  2.032749297203E+01
  2.057142288770E+01  2.081827996235E+01  2.106809932190E+01  2.132091651376E+01
  2.157676751193E+01  2.183568872207E+01  2.209771698673E+01  2.236288959057E+01
  2.263124426566E+01  2.290281919685E+01  2.317765302721E+01  2.345578486354E+01
  2.373725428190E+01  2.402210133328E+01  2.431036654928E+01  2.460209094787E+01
  2.489731603925E+01  2.519608383172E+01  2.549843683770E+01  2.580441807975E+01
  2.611407109671E+01  2.642743994987E+01  2.674456922927E+01  2.706550406002E+01
  2.739029010874E+01  2.771897359004E+01  2.805160127312E+01  2.838822048840E+01
  2.872887913426E+01  2.907362568387E+01  2.942250919208E+01  2.977557930239E+01
  3.013288625401E+01  3.049448088906E+01  3.086041465973E+01  3.123073963565E+01
  3.160550851128E+01  3.198477461341E+01  3.236859190877E+01  3.275701501168E+01
  3.315009919182E+01  3.354790038212E+01  3.395047518670E+01  3.435788088895E+01
  3.477017545961E+01  3.518741756513E+01  3.560966657591E+01  3.603698257482E+01
  3.646942636572E+01  3.690705948211E+01  3.734994419589E+01  3.779814352624E+01
  3.825172124856E+01  3.871074190354E+01  3.917527080638E+01  3.964537405606E+01
  4.012111854473E+01  4.060257196727E+01  4.108980283088E+01  4.158288046485E+01
  4.208187503042E+01  4.258685753079E+01  4.309789982116E+01  4.361507461901E+01
  4.413845551444E+01
</grid-data>
</grid>
<valence-charge total-charge="17" is-unscreening-charge="yes"
 rescaled-to-z-pseudo="no">
<radfunc>
<data npts="457">
  1.240352012372E+01  1.241124034270E+01  1.243431415155E+01  1.247279426169E+01
  1.252626380293E+01  1.259651570830E+01  1.268596050742E+01  1.278825812829E+01
  1.291512135318E+01  1.305204888687E+01  1.320609750661E+01  1.337318612864E+01
  1.357463259843E+01  1.378444943610E+01  1.399346512688E+01  1.423349443400E+01
  1.450893236761E+01  1.476906458598E+01  1.506039156847E+01  1.538639850936E+01
  1.575088968454E+01  1.607295701016E+01  1.642456050532E+01  1.680810160096E+01
  1.722611000963E+01  1.768123455010E+01  1.817622893873E+01  1.857534422127E+01
  1.899970135124E+01  1.945052960988E+01  1.992905736605E+01  2.043649947205E+01
  2.097404218093E+01  2.154282525356E+01  2.214392089687E+01  2.277830914949E+01
  2.344684931012E+01  2.415024698845E+01  2.463880710995E+01  2.514318918751E+01
  2.566343714843E+01  2.619953566646E+01  2.675140284337E+01  2.731888233963E+01
  2.790173494248E+01  2.849962956501E+01  2.911213367642E+01  2.973870317179E+01
  3.037867169949E+01  3.103123947631E+01  3.169546163377E+01  3.237023615606E+01
  3.305429148829E+01  3.374617391599E+01  3.444423484118E+01  3.514661810884E+01
  3.585124756872E+01  3.655581509241E+01  3.725776930418E+01  3.795430532539E+01
  3.864235587726E+01  3.931858413382E+01  3.997937876586E+01  4.062085166661E+01
  4.123883889892E+01  4.182890545075E+01  4.238635442811E+01  4.265131134074E+01
  4.290624134953E+01  4.315049100192E+01  4.338339423123E+01  4.360427335014E+01
  4.381244016176E+01  4.400719719326E+01  4.418783905714E+01  4.435365394453E+01
  4.450392525477E+01  4.463793336504E+01  4.475495754328E+01  4.485427800687E+01
  4.493517812916E+01  4.499694679471E+01  4.503888090358E+01  4.506028802361E+01
  4.506048918889E+01  4.503882184093E+01  4.499464290812E+01  4.492733201712E+01
  4.483629482865E+01  4.472096648808E+01  4.458081517967E+01  4.441534577107E+01
  4.422410353308E+01  4.400667791710E+01  4.376270637089E+01  4.349187817088E+01
  4.319393824700E+01  4.286869097385E+01  4.251600389965E+01  4.213581138241E+01
  4.172811810052E+01  4.129300240310E+01  4.083061946354E+01  4.034120419832E+01
  3.982507391162E+01  3.928263062536E+01  3.871436305381E+01  3.812084818142E+01
  3.750275240301E+01  3.686083218615E+01  3.619593421704E+01  3.550899499296E+01
  3.480103982724E+01  3.407318123596E+01  3.332661667970E+01  3.256262563837E+01
  3.178256600299E+01  3.098786977426E+01  3.018003806518E+01  2.936063541240E+01
  2.853128340947E+01  2.769365368405E+01  2.684946025045E+01  2.600045127851E+01
  2.514840032969E+01  2.429509712113E+01  2.344233788818E+01  2.259191542510E+01
  2.174560889271E+01  2.090517348956E+01  2.007233009020E+01  1.924875496025E+01
  1.843606966183E+01  1.763583126593E+01  1.684952298912E+01  1.607854537066E+01
  1.532420810295E+01  1.458772262273E+01  1.387019556267E+01  1.317262315307E+01
  1.249588665125E+01  1.184074886216E+01  1.120785179791E+01  1.059771550636E+01
  1.001073808058E+01  9.447196841535E+00  8.907250666660E+00  8.390943417516E+00
  7.898208400876E+00  7.428873779815E+00  6.982668835409E+00  6.559230965785E+00
  6.158113298010E+00  5.778792780077E+00  5.420678615277E+00  5.083120899763E+00
  4.765419325964E+00  4.466831819351E+00  4.186582984699E+00  3.923872506293E+00
  3.677884091820E+00  3.447794286689E+00  3.232778414894E+00  3.032015921723E+00
  2.844694620226E+00  2.670014558802E+00  2.507192600634E+00  2.355466457312E+00
  2.214098295082E+00  2.082377875771E+00  1.959625247419E+00  1.845193001949E+00
  1.738468117610E+00  1.638873402794E+00  1.545868555442E+00  1.458950849066E+00
  1.377655452937E+00  1.301555390681E+00  1.230261138897E+00  1.163419865906E+00
  1.100714310719E+00  1.041861304011E+00  9.866087360401E-01  9.347275502196E-01
  8.860012150938E-01  8.402253673453E-01  7.972073067906E-01  7.567655667565E-01
  7.187294773340E-01  6.829387243421E-01  6.492429065890E-01  6.175010937623E-01
  5.875813870487E-01  5.593604843501E-01  5.327232517528E-01  5.075623026981E-01
  4.837775861173E-01  4.612759846171E-01  4.399709236389E-01  4.197819923681E-01
  4.006345770295E-01  3.824595070842E-01  3.651927147218E-01  3.487749079422E-01
  3.331512574197E-01  3.182710972551E-01  3.040876396395E-01  2.905577033783E-01
  2.776414561573E-01  2.653021703709E-01  2.535059922776E-01  2.422217242003E-01
  2.314206194465E-01  2.210761895863E-01  2.111640236979E-01  2.016616191634E-01
  1.925482235792E-01  1.838046873307E-01  1.754133263697E-01  1.673577947291E-01
  1.596229663053E-01  1.521948254403E-01  1.450603658406E-01  1.382074973747E-01
  1.316249603025E-01  1.253022464967E-01  1.192295272326E-01  1.133975871328E-01
  1.077977638693E-01  1.024218932396E-01  9.726225925043E-02  9.231154885550E-02
  8.756281101399E-02  8.300941974874E-02  7.864504090150E-02  7.446360229759E-02
  7.045926704857E-02  6.662640973652E-02  6.295959523956E-02  5.945355997247E-02
  5.610319533178E-02  5.290353314839E-02  4.984973296561E-02  4.693707097374E-02
  4.416093044601E-02  4.151679353363E-02  3.900023429015E-02  3.660691280108E-02
  3.433257034484E-02  3.217302542308E-02  3.012417063952E-02  2.818197031688E-02
  2.634245878754E-02  2.460173929325E-02  2.295598343429E-02  2.140143111187E-02
  1.993439090999E-02  1.855124086446E-02  1.724842956707E-02  1.602247755294E-02
  1.486997891860E-02  1.378760311757E-02  1.277209688000E-02  1.182028620311E-02
  1.092907835955E-02  1.009546387255E-02  9.316518409043E-03  8.589404545093E-03
  7.911373362075E-03  7.279765836931E-03  6.692013995122E-03  6.145641800785E-03
  5.638265764651E-03  5.167595256450E-03  4.731432514478E-03  4.327672350816E-03
  3.954301555982E-03  3.609398011629E-03  3.291129524178E-03  2.997752395821E-03
  2.727609752338E-03  2.479129649416E-03  2.250822980836E-03  2.041281212934E-03
  1.849173970239E-03  1.673246497188E-03  1.512317020367E-03  1.365274034904E-03
  1.231073537493E-03  1.108736227146E-03  9.973446931707E-04  8.960406081296E-04
  8.040219417526E-04  7.205402098821E-04  6.448977707008E-04  5.764451786646E-04
  5.145786048315E-04  4.587373306289E-04  4.084013205867E-04  3.630888781784E-04
  3.223543876757E-04  2.857861438384E-04  2.530042703277E-04  2.236587269469E-04
  1.974274051638E-04  1.740143108529E-04  1.531478327895E-04  1.345790951217E-04
  1.180803918267E-04  1.034437010033E-04  9.047927675654E-05  7.901431637391E-05
  6.889170046306E-05  5.996880371843E-05  5.211637398640E-05  4.521747731159E-05
  3.916650665948E-05  3.386825202307E-05  2.923702963004E-05  2.519586797367E-05
  2.167574839381E-05  1.861489793586E-05  1.595813221665E-05  1.365624602782E-05
  1.166544941134E-05  9.946846949768E-06  8.465958026471E-06  7.192275829929E-06
  6.098862901701E-06  5.161981060302E-06  4.360753573369E-06  3.676857497953E-06
  3.094244163325E-06  2.598885831927E-06  2.178546641334E-06  1.822576002614E-06
  1.521722708534E-06  1.267968078387E-06  1.054376587693E-06  8.749623777391E-07
  7.245705045725E-07  5.987710736429E-07  4.937659073084E-07  4.063054431319E-07
  3.336155895351E-07  2.733335236853E-07  2.234512909339E-07  1.822663996899E-07
  1.483386604304E-07  1.204525854293E-07  9.758471793378E-08  7.887531589926E-08
  6.360387245099E-08  5.116800735085E-08  4.106531202748E-08  3.287777520660E-08
  2.625845698637E-08  2.092011648569E-08  1.662553211890E-08  1.317928429763E-08
  1.042079812044E-08  8.218468577186E-09  6.464713165757E-09  5.071816789215E-09
  3.968451564806E-09  3.096769919450E-09  2.409983249660E-09  1.870350659045E-09
  1.447513016137E-09  1.117116951992E-09  8.596815830263E-10  6.596678318682E-10
  5.047163490039E-10  3.850253221487E-10  2.928439977901E-10  2.218942146183E-10
  1.677560477332E-10  1.264354999492E-10  9.499548596791E-11  7.114825300494E-11
  5.311740701844E-11  3.952798222785E-11  2.931913525045E-11  2.167503239705E-11
  1.597031825937E-11  1.172723175021E-11  8.581994683319E-12  6.258557078761E-12
  4.548159126040E-12  3.293476150729E-12  2.376361893626E-12  1.708406952818E-12
  1.223691787163E-12  8.732442895446E-13  6.208164901731E-13  4.396783251658E-13
  3.101926384495E-13  2.179879966566E-13  1.525872095412E-13  1.063818845052E-13
  7.386870917011E-14  5.108291222223E-14  3.517967792739E-14  2.412612888613E-14
  1.647559988828E-14  1.120290373299E-14  7.584613255825E-15  5.112427551554E-15
  3.430748836612E-15  2.291899541915E-15  1.524135944974E-15  1.008903436874E-15
  6.647361079447E-16  4.359115966960E-16  2.844935839725E-16  1.847764198172E-16
  1.194250557880E-16  7.680574394528E-17  4.914909101029E-17  3.129210007791E-17
  1.982097128930E-17  1.248991282631E-17  7.829085976934E-18  4.881491057753E-18
  3.027303639070E-18  1.867211228618E-18  1.145345448434E-18  6.986446940391E-19
  4.237639081556E-19  2.555699833450E-19  1.532442528252E-19  9.135174526529E-20
  5.413489065294E-20  3.188853180345E-20  1.867055918086E-20  1.086460544007E-20
  6.283075656142E-21  3.610768653795E-21  2.061880063238E-21  0.000000000000E+00
  0.000000000000E+00  0.000000000000E+00  0.000000000000E+00  0.000000000000E+00
  0.000000000000E+00  0.000000000000E+00  0.000000000000E+00  0.000000000000E+00
  0.000000000000E+00  0.000000000000E+00  0.000000000000E+00  0.000000000000E+00
  0.000000000000E+00  0.000000000000E+00  0.000000000000E+00  0.000000000000E+00
  0.000000000000E+00
</data>
</radfunc>
</valence-charge>
<pseudocore-charge matching-radius="0.401508927164"
 number-of-continuous-derivatives="4">
<annotation model-charge-form="Teter function with specified parameters" />
<radfunc>
<data npts="290">
  2.667906148953E+02  2.667496216128E+02  2.666270994688E+02  2.664227590120E+02
  2.661387981221E+02  2.657656715125E+02  2.652905407632E+02  2.647470448496E+02
  2.640728980312E+02  2.633450976398E+02  2.625260776092E+02  2.616374638613E+02
  2.605657536157E+02  2.594490678137E+02  2.583361838849E+02  2.570575875510E+02
  2.555895853184E+02  2.542023596839E+02  2.526478298970E+02  2.509070176236E+02
  2.489591131997E+02  2.472364758035E+02  2.453542417625E+02  2.432990368388E+02
  2.410566619053E+02  2.386121077212E+02  2.359495882808E+02  2.337997542462E+02
  2.315108395761E+02  2.290754656764E+02  2.264861125237E+02  2.237351601983E+02
  2.208149392152E+02  2.177177907053E+02  2.144361375421E+02  2.109625675367E+02
  2.072899298251E+02  2.034114455393E+02  2.007083037907E+02  1.979091607342E+02
  1.950124537645E+02  1.920167890438E+02  1.889209651015E+02  1.857239979599E+02
  1.824251477644E+02  1.790239468759E+02  1.755202293553E+02  1.719141617393E+02
  1.682062749748E+02  1.643974973366E+02  1.604891881120E+02  1.564831717851E+02
  1.523817724022E+02  1.481878477398E+02  1.439048228349E+02  1.395367223691E+02
  1.350882013306E+02  1.305645733021E+02  1.259718356519E+02  1.213166908293E+02
  1.166065628973E+02  1.118496083663E+02  1.070547203366E+02  1.022315249083E+02
  9.739036878608E+01  9.254229699284E+01  8.769901961718E+01  8.528300921831E+01
  8.287286656220E+01  8.047022018536E+01  7.807672933781E+01  7.569408139800E+01
  7.332398905677E+01  7.096818726720E+01  6.862842995823E+01  6.630648651099E+01
  6.400413799820E+01  6.172317318841E+01  5.946538431832E+01  5.723256263810E+01
  5.502649373655E+01  5.284895265451E+01  5.070169879734E+01  4.858647065918E+01
  4.650498037390E+01  4.445890811003E+01  4.244989632951E+01  4.047954393204E+01
  3.854940031003E+01  3.666095934091E+01  3.481565334664E+01  3.301484705255E+01
  3.125983157990E+01  2.955181850925E+01  2.789193405365E+01  2.628121338292E+01
  2.472059514213E+01  2.321091620894E+01  2.175290673596E+01  2.034718552524E+01
  1.899425578267E+01  1.769450130034E+01  1.644818311470E+01  1.525543668758E+01
  1.411626965588E+01  1.303056019395E+01  1.199805602988E+01  1.101837415433E+01
  1.009100125588E+01  9.215294913130E+00  8.390485567958E+00  7.615679298593E+00
  6.889861404492E+00  6.211900807596E+00  5.580555266648E+00  4.994477392652E+00
  4.452221444562E+00  3.952250874806E+00  3.492946584520E+00  3.072615838412E+00
  2.689501779207E+00  2.341793471750E+00  2.027636397295E+00  1.745143309366E+00
  1.492405354168E+00  1.267503350941E+00  1.068519121147E+00  8.935467501922E-01
  7.407036616156E-01  6.081413816376E-01  4.940558717309E-01  3.966973086477E-01
  3.143791952265E-01  2.454866913783E-01  1.884840629781E-01  1.419211569355E-01
  1.044388234400E-01  7.477322114530E-02  5.175895769624E-02  3.433103625412E-02
  2.152559825028E-02  1.247947310304E-02  6.428566657009E-03  2.705141159724E-03
  7.340601652291E-04  2.809129986357E-05  1.823777846440E-04  8.682054267048E-04
  1.826204938672E-03  2.859139433049E-03  3.824433347726E-03  4.626601554459E-03
  5.209735757826E-03  5.550199406455E-03  5.649672250639E-03  5.528671581668E-03
  5.220659425875E-03  4.766824043848E-03  4.211600652930E-03  3.598971130880E-03
  2.969556459066E-03  2.358489788821E-03  1.794033265255E-03  1.296879111113E-03
  8.800558953513E-04  5.493452162530E-04  3.041028912604E-04  1.383726389495E-04
  4.217939935702E-05  2.893839660095E-06  6.568928780921E-06  3.916315875137E-05
  8.758221141897E-05  1.404905706158E-04  1.888655580820E-04  2.262872345811E-04
  2.489772589739E-04  2.556169241592E-04  2.469881483247E-04  2.254904047758E-04
  1.945909558723E-04  1.582652140930E-04  1.204788674737E-04  8.475422935737E-05
  5.385107907168E-05  2.957827188450E-05  1.273797506705E-05  3.190910561165E-06
  1.971710466768E-08  1.759507754030E-06  6.660565611069E-06  1.294814007026E-05
  1.904827072990E-05  2.375583091754E-05  2.633053412068E-05  2.651721977155E-05
  2.449696631710E-05  2.078417802306E-05  1.609070653592E-05  1.118063032903E-05
  6.738333251709E-06  3.268313127779E-06  1.038492709022E-06  7.082855231096E-08
  0.000000000000E+00  0.000000000000E+00  0.000000000000E+00  0.000000000000E+00
  0.000000000000E+00  0.000000000000E+00  0.000000000000E+00  0.000000000000E+00
  0.000000000000E+00  0.000000000000E+00  0.000000000000E+00  0.000000000000E+00
  0.000000000000E+00  0.000000000000E+00  0.000000000000E+00  0.000000000000E+00
  0.000000000000E+00  0.000000000000E+00  0.000000000000E+00  0.000000000000E+00
  0.000000000000E+00  0.000000000000E+00  0.000000000000E+00  0.000000000000E+00
  0.000000000000E+00  0.000000000000E+00  0.000000000000E+00  0.000000000000E+00
  0.000000000000E+00  0.000000000000E+00  0.000000000000E+00  0.000000000000E+00
  0.000000000000E+00  0.000000000000E+00  0.000000000000E+00  0.000000000000E+00
  0.000000000000E+00  0.000000000000E+00  0.000000000000E+00  0.000000000000E+00
  0.000000000000E+00  0.000000000000E+00  0.000000000000E+00  0.000000000000E+00
  0.000000000000E+00  0.000000000000E+00  0.000000000000E+00  0.000000000000E+00
  0.000000000000E+00  0.000000000000E+00  0.000000000000E+00  0.000000000000E+00
  0.000000000000E+00  0.000000000000E+00  0.000000000000E+00  0.000000000000E+00
  0.000000000000E+00  0.000000000000E+00  0.000000000000E+00  0.000000000000E+00
  0.000000000000E+00  0.000000000000E+00  0.000000000000E+00  0.000000000000E+00
  0.000000000000E+00  0.000000000000E+00  0.000000000000E+00  0.000000000000E+00
  0.000000000000E+00  0.000000000000E+00  0.000000000000E+00  0.000000000000E+00
  0.000000000000E+00  0.000000000000E+00  0.000000000000E+00  0.000000000000E+00
  0.000000000000E+00  0.000000000000E+00  0.000000000000E+00  0.000000000000E+00
  0.000000000000E+00  0.000000000000E+00  0.000000000000E+00  0.000000000000E+00
  0.000000000000E+00  0.000000000000E+00
</data>
</radfunc>
</pseudocore-charge>
<semilocal-potentials set="scalar_relativistic">
<slps n="3" l="s" rc="1.26189844796" eref="-3.75348982023">
<radfunc>
<data npts="290">
 -2.168544845593E+01 -2.168600956309E+01 -2.168768644900E+01 -2.169048264323E+01
 -2.169436735274E+01 -2.169947009903E+01 -2.170596486879E+01 -2.171339008862E+01
 -2.172259420799E+01 -2.173252330781E+01 -2.174368745806E+01 -2.175578889625E+01
 -2.177036798514E+01 -2.178554036918E+01 -2.180064213250E+01 -2.181796903572E+01
 -2.183783130902E+01 -2.185656954315E+01 -2.187753135288E+01 -2.190095896998E+01
 -2.192711511785E+01 -2.195019424109E+01 -2.197535478165E+01 -2.200275876792E+01
 -2.203257529751E+01 -2.206497950849E+01 -2.210015114059E+01 -2.212845567956E+01
 -2.215849663004E+01 -2.219035044078E+01 -2.222409197830E+01 -2.225979347103E+01
 -2.229752326855E+01 -2.233734439363E+01 -2.237931286292E+01 -2.242347575108E+01
 -2.246986897159E+01 -2.251851474678E+01 -2.255220025568E+01 -2.258688675776E+01
 -2.262256681616E+01 -2.265922811774E+01 -2.269685293082E+01 -2.273541752410E+01
 -2.277489154563E+01 -2.281523736093E+01 -2.285640934945E+01 -2.289835315913E+01
 -2.294100491888E+01 -2.298429040950E+01 -2.302812419374E+01 -2.307240870700E+01
 -2.311703331072E+01 -2.316187331113E+01 -2.320678894697E+01 -2.325162435063E+01
 -2.329620648814E+01 -2.334034408456E+01 -2.338382654259E+01 -2.342642286334E+01
 -2.346788058000E+01 -2.350792471617E+01 -2.354625678287E+01 -2.358255382943E+01
 -2.361646756580E+01 -2.364762357530E+01 -2.367562063936E+01 -2.368830172127E+01
 -2.370003019726E+01 -2.371074816267E+01 -2.372039596655E+01 -2.372891221052E+01
 -2.373623375127E+01 -2.374229570695E+01 -2.374703146764E+01 -2.375037271029E+01
 -2.375224941822E+01 -2.375258990563E+01 -2.375132084730E+01 -2.374836731368E+01
 -2.374365281181E+01 -2.373709933223E+01 -2.372862740217E+01 -2.371815614534E+01
 -2.370560334851E+01 -2.369088553514E+01 -2.367391804646E+01 -2.365461512993E+01
 -2.363289003567E+01 -2.360865512070E+01 -2.358182196146E+01 -2.355230147460E+01
 -2.352000404622E+01 -2.348483966974E+01 -2.344671809233E+01 -2.340554897008E+01
 -2.336124203189E+01 -2.331370725202E+01 -2.326285503134E+01 -2.320859638712E+01
 -2.315084315132E+01 -2.308950817720E+01 -2.302450555423E+01 -2.295575083093E+01
 -2.288316124580E+01 -2.280665596583E+01 -2.272615633288E+01 -2.264158611750E+01
 -2.255287178042E+01 -2.245994274158E+01 -2.236273165709E+01 -2.226117470404E+01
 -2.215521187403E+01 -2.204478727552E+01 -2.192984944621E+01 -2.181035167613E+01
 -2.168625234304E+01 -2.155751526136E+01 -2.142411004693E+01 -2.128601249963E+01
 -2.114320500689E+01 -2.099567697112E+01 -2.084342526513E+01 -2.068645471997E+01
 -2.052477865047E+01 -2.035841942451E+01 -2.018740908315E+01 -2.001179001959E+01
 -1.983161572618E+01 -1.964695161991E+01 -1.945787595813E+01 -1.926448085769E+01
 -1.906687343218E+01 -1.886517706328E+01 -1.865953282399E+01 -1.845010107260E+01
 -1.823706323766E+01 -1.802062381525E+01 -1.780101260012E+01 -1.757848717269E+01
 -1.735333566288E+01 -1.712587981005E+01 -1.689647833526E+01 -1.666553063699E+01
 -1.643348081464E+01 -1.620082201412E+01 -1.596810107673E+01 -1.573592345588E+01
 -1.550495834485E+01 -1.527594393323E+01 -1.504969267938E+01 -1.482709645231E+01
 -1.460913135897E+01 -1.439686203495E+01 -1.419144514020E+01 -1.399413177702E+01