<?xml version="1.0" encoding="UTF-8" ?>
<psml version="1.1" energy_unit="hartree" length_unit="bohr"
 uuid="66334aa0-1d65-11e8-7962-b5025fe7baee"
 xmlns="http://esl.cecam.org/PSML/ns/1.1">
<provenance creator="ONCVPSP-3.3.0+psml-3.3.0-73 (scalar-relativistic)"
 date="2018-03-01">
<annotation action="semilocal-pseudopotential-generation"
 action-cont="projectors-generation" />
<input-file name="oncvpsp-input">
<![CDATA[# atsym z nc nv iexc psfile
Co 27 3 4 -116133 upf
# n l f
1 0 2.0
2 0 2.0
2 1 6.0
3 0 2.0
3 1 6.0
3 2 7.0
4 0 2.0
# lmax
2
# l rc ep ncon nbas qcut
0 1.2 0.0 4 7 10.0
1 1.2 0.0 4 7 10.0
2 1.55 0.0 4 7 10.2
# lloc lpopt rc5 dvloc0
4 5 1.2 0.0
# l nproj debl
0 2 0.8
1 2 0.8
2 2 0.8
# icmod fcfact
3 6 1.8
# epsh1 epsh2 depsh
-12.0 12.0 0.02
# rlmax drl
6.0 0.01
 0
]]>
</input-file>
</provenance>
<pseudo-atom-spec atomic-label="Co" atomic-number="27" z-pseudo="17"
 flavor="Hamann&apos;s oncvpsp" relativity="scalar" spin-dft="no"
 core-corrections="yes">
<annotation pseudo-energy="-143.073727280" />
<exchange-correlation>
<annotation oncvpsp-xc-code="-116133" oncvpsp-xc-type="libxc-interface" />
<libxc-info number-of-functionals="2">
<functional name="Perdew, Burke &amp; Ernzerhof SOL (GGA)" type="exchange"
 id="116" />
<functional name="Perdew, Burke &amp; Ernzerhof SOL (GGA)" type="correlation"
 id="133" />
</libxc-info>
</exchange-correlation>
<valence-configuration total-valence-charge="17">
<shell n="3" l="s" occupation="2" />
<shell n="3" l="p" occupation="6" />
<shell n="3" l="d" occupation="7" />
<shell n="4" l="s" occupation="2" />
</valence-configuration>
</pseudo-atom-spec>
<grid npts="457">
<annotation type="sampled from oncvpsp log grid"
 recipe="r(i:1..N) = r1*exp(a*(i-1)) + r=0; resampled"
 recipe-cont="r1: scale; a: step" scale="0.185185185185E-04"
 step="0.119285708653E-01" delta="0.500000000000E-02" rmax="44.1384555144" />
<grid-data>
  0.000000000000E+00  5.040192420950E-03  1.006738882075E-02  1.510268858140E-02
  2.010881910914E-02  2.522413632811E-02  3.052843244760E-02  3.564931321503E-02
  4.113555087463E-02  4.634708694971E-02  5.159968556889E-02  5.676637413542E-02
  6.245040443473E-02  6.788891108236E-02  7.292592018673E-02  7.833664953955E-02
  8.414882726703E-02  8.932039405154E-02  9.480979180144E-02  1.006365535764E-01
  1.068214128868E-01  1.120418749708E-01  1.175174659061E-01  1.232606540777E-01
  1.292845172121E-01  1.356027721566E-01  1.422298061135E-01  1.474117681829E-01
  1.527825284489E-01  1.583489655335E-01  1.641182086729E-01  1.700976468475E-01
  1.762949382462E-01  1.827180200740E-01  1.893751187181E-01  1.962747602834E-01
  2.034257815129E-01  2.108373411047E-01  2.159277978683E-01  2.211411586201E-01
  2.264803907538E-01  2.319485333081E-01  2.375486986963E-01  2.432840744777E-01
  2.491579251718E-01  2.551735941172E-01  2.613345053736E-01  2.676441656713E-01
  2.741061664073E-01  2.807241856890E-01  2.875019904283E-01  2.944434384852E-01
  3.015524808640E-01  3.088331639619E-01  3.162896318726E-01  3.239261287446E-01
  3.317470011970E-01  3.397567007939E-01  3.479597865779E-01  3.563609276650E-01
  3.649649059025E-01  3.737766185906E-01  3.828010812699E-01  3.920434305761E-01
  4.015089271639E-01  4.112029587013E-01  4.211310429362E-01  4.261846154515E-01
  4.312988308369E-01  4.364744168069E-01  4.417121098086E-01  4.470126551263E-01
  4.523768069878E-01  4.578053286717E-01  4.632989926157E-01  4.688585805271E-01
  4.744848834935E-01  4.801787020954E-01  4.859408465205E-01  4.917721366788E-01
  4.976734023189E-01  5.036454831467E-01  5.096892289445E-01  5.158054996918E-01
  5.219951656881E-01  5.282591076764E-01  5.345982169685E-01  5.410133955721E-01
  5.475055563190E-01  5.540756229948E-01  5.607245304708E-01  5.674532248364E-01
  5.742626635345E-01  5.811538154969E-01  5.881276612828E-01  5.951851932182E-01
  6.023274155368E-01  6.095553445233E-01  6.168700086576E-01  6.242724487615E-01
  6.317637181466E-01  6.393448827644E-01  6.470170213575E-01  6.547812256138E-01
  6.626386003212E-01  6.705902635250E-01  6.786373466873E-01  6.867809948476E-01
  6.950223667858E-01  7.033626351872E-01  7.118029868094E-01  7.203446226511E-01
  7.289887581230E-01  7.377366232204E-01  7.465894626991E-01  7.555485362515E-01
  7.646151186865E-01  7.737905001107E-01  7.830759861121E-01  7.924728979454E-01
  8.019825727207E-01  8.116063635934E-01  8.213456399565E-01  8.312017876360E-01
  8.411762090876E-01  8.512703235967E-01  8.614855674798E-01  8.718233942896E-01
  8.822852750211E-01  8.928726983213E-01  9.035871707012E-01  9.144302167496E-01
  9.254033793506E-01  9.365082199028E-01  9.477463185416E-01  9.591192743641E-01
  9.706287056565E-01  9.822762501244E-01  9.940635651259E-01  1.005992327907E+00
  1.018064235842E+00  1.030281006672E+00  1.042644378752E+00  1.055156111297E+00
  1.067817984633E+00  1.080631800449E+00  1.093599382054E+00  1.106722574639E+00
  1.120003245534E+00  1.133443284481E+00  1.147044603895E+00  1.160809139141E+00
  1.174738848811E+00  1.188835714997E+00  1.203101743577E+00  1.217538964500E+00
  1.232149432074E+00  1.246935225258E+00  1.261898447962E+00  1.277041229337E+00
  1.292365724089E+00  1.307874112778E+00  1.323568602132E+00  1.339451425357E+00
  1.355524842461E+00  1.371791140571E+00  1.388252634258E+00  1.404911665869E+00
  1.421770605859E+00  1.438831853130E+00  1.456097835367E+00  1.473571009392E+00
  1.491253861504E+00  1.509148907842E+00  1.527258694736E+00  1.545585799073E+00
  1.564132828662E+00  1.582902422606E+00  1.601897251677E+00  1.621120018697E+00
  1.640573458922E+00  1.660260340429E+00  1.680183464514E+00  1.700345666088E+00
  1.720749814081E+00  1.741398811850E+00  1.762295597592E+00  1.783443144764E+00
  1.804844462501E+00  1.826502596051E+00  1.848420627203E+00  1.870601674730E+00
  1.893048894827E+00  1.915765481564E+00  1.938754667343E+00  1.962019723351E+00
  1.985563960032E+00  2.009390727552E+00  2.033503416283E+00  2.057905457278E+00
  2.082600322765E+00  2.107591526639E+00  2.132882624958E+00  2.158477216458E+00
  2.184378943055E+00  2.210591490372E+00  2.237118588256E+00  2.263964011315E+00
  2.291131579451E+00  2.318625158405E+00  2.346448660305E+00  2.374606044229E+00
  2.403101316760E+00  2.431938532561E+00  2.461121794952E+00  2.490655256491E+00
  2.520543119569E+00  2.550789637004E+00  2.581399112648E+00  2.612375902000E+00
  2.643724412824E+00  2.675449105778E+00  2.707554495047E+00  2.740045148987E+00
  2.772925690775E+00  2.806200799065E+00  2.839875208653E+00  2.873953711157E+00
  2.908441155691E+00  2.943342449559E+00  2.978662558954E+00  3.014406509662E+00
  3.050579387777E+00  3.087186340431E+00  3.124232576516E+00  3.161723367434E+00
  3.199664047843E+00  3.238060016417E+00  3.276916736614E+00  3.316239737454E+00
  3.356034614303E+00  3.396307029675E+00  3.437062714031E+00  3.478307466599E+00
  3.520047156199E+00  3.562287722073E+00  3.605035174738E+00  3.648295596835E+00
  3.692075143997E+00  3.736380045725E+00  3.781216606273E+00  3.826591205549E+00
  3.872510300015E+00  3.918980423615E+00  3.966008188699E+00  4.013600286963E+00
  4.061763490407E+00  4.110504652292E+00  4.159830708119E+00  4.209748676617E+00
  4.260265660736E+00  4.311388848665E+00  4.363125514849E+00  4.415483021027E+00
  4.468468817279E+00  4.522090443087E+00  4.576355528404E+00  4.631271794745E+00
  4.686847056281E+00  4.743089220957E+00  4.800006291608E+00  4.857606367108E+00
  4.915897643513E+00  4.974888415235E+00  5.034587076218E+00  5.095002121133E+00
  5.156142146586E+00  5.218015852345E+00  5.280632042573E+00  5.343999627084E+00
  5.408127622609E+00  5.473025154080E+00  5.538701455929E+00  5.605165873401E+00
  5.672427863881E+00  5.740496998248E+00  5.809382962227E+00  5.879095557774E+00
  5.949644704467E+00  6.021040440921E+00  6.093292926212E+00  6.166412441326E+00
  6.240409390622E+00  6.315294303310E+00  6.391077834949E+00  6.467770768969E+00
  6.545384018196E+00  6.623928626415E+00  6.703415769932E+00  6.783856759171E+00
  6.865263040281E+00  6.947646196764E+00  7.031017951125E+00  7.115390166539E+00
  7.200774848537E+00  7.287184146720E+00  7.374630356480E+00  7.463125920758E+00
  7.552683431807E+00  7.643315632989E+00  7.735035420585E+00  7.827855845632E+00
  7.921790115779E+00  8.016851597169E+00  8.113053816335E+00  8.210410462131E+00
  8.308935387676E+00  8.408642612329E+00  8.509546323676E+00  8.611660879561E+00
  8.715000810115E+00  8.819580819837E+00  8.925415789675E+00  9.032520779151E+00
  9.140911028501E+00  9.250601960843E+00  9.361609184373E+00  9.473948494585E+00
  9.587635876520E+00  9.702687507039E+00  9.819119757123E+00  9.936949194208E+00
  1.005619258454E+01  1.017686689555E+01  1.029898929830E+01  1.042257716988E+01
  1.054764809592E+01  1.067421987307E+01  1.080231051155E+01  1.093193823768E+01
  1.106312149654E+01  1.119587895450E+01  1.133022950195E+01  1.146619225597E+01
  1.160378656304E+01  1.174303200180E+01  1.188394838582E+01  1.202655576645E+01
  1.217087443565E+01  1.231692492888E+01  1.246472802802E+01  1.261430476436E+01
  1.276567642153E+01  1.291886453859E+01  1.307389091305E+01  1.323077760401E+01
  1.338954693526E+01  1.355022149848E+01  1.371282415646E+01  1.387737804634E+01
  1.404390658290E+01  1.421243346189E+01  1.438298266343E+01  1.455557845540E+01
  1.473024539686E+01  1.490700834162E+01  1.508589244172E+01  1.526692315102E+01
  1.545012622884E+01  1.563552774358E+01  1.582315407650E+01  1.601303192542E+01
  1.620518830853E+01  1.639965056823E+01  1.659644637505E+01  1.679560373155E+01
  1.699715097633E+01  1.720111678804E+01  1.740753018950E+01  1.761642055177E+01
  1.782781759840E+01  1.804175140958E+01  1.825825242649E+01  1.847735145561E+01
  1.869907967308E+01  1.892346862915E+01  1.915055025270E+01  1.938035685574E+01
  1.961292113800E+01  1.984827619166E+01  2.008645550596E+01  2.032749297203E+01
  2.057142288770E+01  2.081827996235E+01  2.106809932190E+01  2.132091651376E+01
  2.157676751193E+01  2.183568872207E+01  2.209771698673E+01  2.236288959057E+01
  2.263124426566E+01  2.290281919685E+01  2.317765302721E+01  2.345578486354E+01
  2.373725428190E+01  2.402210133328E+01  2.431036654928E+01  2.460209094787E+01
  2.489731603925E+01  2.519608383172E+01  2.549843683770E+01  2.580441807975E+01
  2.611407109671E+01  2.642743994987E+01  2.674456922927E+01  2.706550406002E+01
  2.739029010874E+01  2.771897359004E+01  2.805160127312E+01  2.838822048840E+01
  2.872887913426E+01  2.907362568387E+01  2.942250919208E+01  2.977557930239E+01
  3.013288625401E+01  3.049448088906E+01  3.086041465973E+01  3.123073963565E+01
  3.160550851128E+01  3.198477461341E+01  3.236859190877E+01  3.275701501168E+01
  3.315009919182E+01  3.354790038212E+01  3.395047518670E+01  3.435788088895E+01
  3.477017545961E+01  3.518741756513E+01  3.560966657591E+01  3.603698257482E+01
  3.646942636572E+01  3.690705948211E+01  3.734994419589E+01  3.779814352624E+01
  3.825172124856E+01  3.871074190354E+01  3.917527080638E+01  3.964537405606E+01
  4.012111854473E+01  4.060257196727E+01  4.108980283088E+01  4.158288046485E+01
  4.208187503042E+01  4.258685753079E+01  4.309789982116E+01  4.361507461901E+01
  4.413845551444E+01
</grid-data>
</grid>
<valence-charge total-charge="17" is-unscreening-charge="yes"
 rescaled-to-z-pseudo="no">
<radfunc>
<data npts="457">
  9.776883182891E+00  9.785426893696E+00  9.810963116258E+00  9.853553742796E+00
  9.912743206784E+00  9.990524837864E+00  1.008958031627E+01  1.020290232659E+01
  1.034348575355E+01  1.049528206744E+01  1.066613317601E+01  1.085153575440E+01
  1.107518523984E+01  1.130827070924E+01  1.154061112282E+01  1.180760426121E+01
  1.211421804786E+01  1.240402331734E+01  1.272884599538E+01  1.309266644448E+01
  1.349984724742E+01  1.385999691889E+01  1.425356150115E+01  1.468333389665E+01
  1.515227187268E+01  1.566349104068E+01  1.622025243758E+01  1.666974417996E+01
  1.714822363804E+01  1.765718043325E+01  1.819811597672E+01  1.877253004038E+01
  1.938190439297E+01  2.002768306124E+01  2.071124873137E+01  2.143389476100E+01
  2.219679223049E+01  2.300095142529E+01  2.356038811778E+01  2.413870361325E+01
  2.473601697912E+01  2.535238074624E+01  2.598777188888E+01  2.664208204678E+01
  2.731510696417E+01  2.800653512727E+01  2.871593559017E+01  2.944274498999E+01
  3.018625376573E+01  3.094559161151E+01  3.171971221510E+01  3.250737735606E+01
  3.330714046595E+01  3.411732978553E+01  3.493603129159E+01  3.576107160890E+01
  3.659000117111E+01  3.742007794872E+01  3.824825212178E+01  3.907115213986E+01
  3.988507268113E+01  4.068596509575E+01  4.146943099368E+01  4.223071971219E+01
  4.296473047136E+01  4.366602009220E+01  4.432881720848E+01  4.464389295249E+01
  4.494704394476E+01  4.523746750012E+01  4.551434605251E+01  4.577684862811E+01
  4.602413248788E+01  4.625534494596E+01  4.646962536996E+01  4.666610736835E+01
  4.684392116943E+01  4.700219619554E+01  4.714006383492E+01  4.725666041259E+01
  4.735113036002E+01  4.742262958220E+01  4.747032901858E+01  4.749341839273E+01
  4.749111014367E+01  4.746264352925E+01  4.740728888995E+01  4.732435205875E+01
  4.721317890021E+01  4.707315995903E+01  4.690373519548E+01  4.670439878228E+01
  4.647470393413E+01  4.621426773856E+01  4.592277595316E+01  4.559998773183E+01
  4.524574023929E+01  4.485995311079E+01  4.444263271113E+01  4.399387614516E+01
  4.351387496970E+01  4.300291855553E+01  4.246139704712E+01  4.188980386709E+01
  4.128873771264E+01  4.065890399211E+01  4.000111565125E+01  3.931629334124E+01
  3.860546488379E+01  3.786976399275E+01  3.711042821694E+01  3.632879607470E+01
  3.552630335800E+01  3.470447859179E+01  3.386493764306E+01  3.300937748416E+01
  3.213956912493E+01  3.125734973977E+01  3.036461402722E+01  2.946330485154E+01
  2.855540322812E+01  2.764291772639E+01  2.672787337588E+01  2.581230017215E+01
  2.489822128972E+01  2.398764111845E+01  2.308253324776E+01  2.218482852928E+01
  2.129640335290E+01  2.041906827349E+01  1.955455712535E+01  1.870451675895E+01
  1.787049752930E+01  1.705394465730E+01  1.625619057533E+01  1.547844835471E+01
  1.472180629796E+01  1.398722376063E+01  1.327552824853E+01  1.258741381530E+01
  1.192344076337E+01  1.128403662962E+01  1.066949841437E+01  1.007999599173E+01
  9.515576618729E+00  8.976170442973E+00  8.461596892721E+00  7.971571820857E+00
  7.505715264884E+00  7.063559679722E+00  6.644558498557E+00  6.248094879517E+00
  5.873490502465E+00  5.520014290354E+00  5.186890943148E+00  4.873309610273E+00
  4.578433978910E+00  4.301413346644E+00  4.041389429842E+00  3.797502782186E+00
  3.568898745411E+00  3.354732953040E+00  3.154176335730E+00  2.966419629708E+00
  2.790677388687E+00  2.626191505219E+00  2.472234250632E+00  2.328110844411E+00
  2.193161564265E+00  2.066763407549E+00  1.948331313432E+00  1.837318953630E+00
  1.733219097968E+00  1.635563559897E+00  1.543922726617E+00  1.457904678869E+00
  1.377153907036E+00  1.301348358869E+00  1.230191180574E+00  1.163399735236E+00
  1.100705378925E+00  1.041853054939E+00  9.866009513497E-01  9.347201333926E-01
  8.859941547987E-01  8.402186519500E-01  7.972009244626E-01  7.567595055526E-01
  7.187237252785E-01  6.829332694967E-01  6.492377371130E-01  6.174961979647E-01
  5.875767534325E-01  5.593561016496E-01  5.327191089648E-01  5.075583891064E-01
  4.837738913128E-01  4.612724985125E-01  4.399676364799E-01  4.197788947396E-01
  4.006316598599E-01  3.824567616458E-01  3.651901326292E-01  3.487724811486E-01
  3.331489782111E-01  3.182689582433E-01  3.040856337540E-01  2.905558238567E-01
  2.776396965358E-01  2.653005244736E-01  2.535044542060E-01  2.422202883222E-01
  2.314192803850E-01  2.210749422088E-01  2.111628631056E-01  2.016605406806E-01
  1.925472227432E-01  1.838037598816E-01  1.754124682414E-01  1.673570020399E-01
  1.596222353494E-01  1.521941526798E-01  1.450597478974E-01  1.382069310238E-01
  1.316244424646E-01  1.253017742321E-01  1.192290977351E-01  1.133971977241E-01
  1.077974119939E-01  1.024215764598E-01  9.726197524151E-02  9.231129540178E-02
  8.756258600462E-02  8.300922117394E-02  7.864486684900E-02  7.446345094927E-02
  7.045913667725E-02  6.662629870296E-02  6.295950198951E-02  5.945348303395E-02
  5.610313331232E-02  5.290348473251E-02  4.984969691225E-02  4.693704611381E-02
  4.416091567998E-02  4.151678782918E-02  3.900023667981E-02  3.660692237995E-02
  3.433258626828E-02  3.217304690447E-02  3.012419694799E-02  2.818200077512E-02
  2.634249276951E-02  2.460177622203E-02  2.295602277987E-02  2.140147238895E-02
  1.993443367586E-02  1.855128471681E-02  1.724847414189E-02  1.602252252243E-02
  1.487002398912E-02  1.378764802756E-02  1.277214139803E-02  1.182033012594E-02
  1.092912151019E-02  1.009550609844E-02  9.316559580250E-03  8.589444552564E-03
  7.911412115975E-03  7.279803265034E-03  6.692050041268E-03  6.145676423409E-03
  5.638298935389E-03  5.167626958805E-03  4.731462742576E-03  4.327701108221E-03
  3.954328854592E-03  3.609423870643E-03  3.291153969131E-03  2.997775457692E-03
  2.727631466726E-03  2.479150055778E-03  2.250842121791E-03  2.041299133627E-03
  1.849190717760E-03  1.673262120053E-03  1.512331568041E-03  1.365287557381E-03
  1.231086084918E-03  1.108747849485E-03  9.973554399107E-04  8.960505280292E-04
  8.040310826171E-04  7.205486183756E-04  6.449054921859E-04  5.764522570702E-04
  5.145850825452E-04  4.587432484115E-04  4.084067175080E-04  3.630937915714E-04
  3.223588531073E-04  2.857901950955E-04  2.530079394171E-04  2.236620441063E-04
  1.974303988842E-04  1.740170079095E-04  1.531502582812E-04  1.345812725169E-04
  1.180823430148E-04  1.034454463512E-04  9.048083516907E-05  7.901570535629E-05
  6.889293618640E-05  5.996990108614E-05  5.211734670147E-05  4.521833794396E-05
  3.916726671306E-05  3.386892200191E-05  2.923761910322E-05  2.519638563859E-05
  2.167620213760E-05  1.861529489456E-05  1.595847883213E-05  1.365654810211E-05
  1.166571215838E-05  9.947075044403E-06  8.466155650745E-06  7.192446716582E-06
  6.099010374918E-06  5.162108073742E-06  4.360862745538E-06  3.676951144977E-06
  3.094324329230E-06  2.598954316510E-06  2.178605025742E-06  1.822625672739E-06
  1.521764876353E-06  1.268003801354E-06  1.054406786322E-06  8.749878514860E-07
  7.245919461517E-07  5.987890818792E-07  4.937809986597E-07  4.063180619731E-07
  3.336261173145E-07  2.733422870581E-07  2.234585689661E-07  1.822724302204E-07
  1.483436456726E-07  1.204566968907E-07  9.758810072337E-08  7.887809248916E-08
  6.360614595201E-08  5.116986435689E-08  4.106682507876E-08  3.287900491680E-08
  2.625945387437E-08  2.092092254863E-08  1.662618217922E-08  1.317980715337E-08
  1.042121752473E-08  8.218804069997E-09  6.464980778086E-09  5.072029637662E-09
  3.968620352103E-09  3.096903354625E-09  2.410088399718E-09  1.870433242429E-09
  1.447577647853E-09  1.117167342524E-09  8.588431145957E-10  6.590638725661E-10
  5.042829924301E-10  3.847156086391E-10  2.926235497765E-10  2.219053761394E-10
  1.677646066423E-10  1.264420426633E-10  9.500047167416E-11  7.115204012551E-11
  5.312027442676E-11  3.953014620140E-11  2.932076297220E-11  2.167625267222E-11
  1.597122999330E-11  1.172791063224E-11  8.582498438184E-12  6.258929578160E-12
  4.548433596557E-12  3.293677667780E-12  2.376509313423E-12  1.708514403561E-12
  1.223769815812E-12  8.733007404637E-13  6.208571758144E-13  4.397075360865E-13
  3.102135296653E-13  2.180028791873E-13  1.525977695531E-13  1.063893473821E-13
  7.387396186076E-14  5.108659410734E-14  3.518224802968E-14  2.412791537780E-14
  1.647683640608E-14  1.120375590377E-14  7.585197988855E-15  5.112827009338E-15
  3.431020507871E-15  2.292083472114E-15  1.524259903278E-15  1.008986591779E-15
  6.647916300469E-16  4.359484932278E-16  2.845179857991E-16  1.847924800379E-16
  1.194355741469E-16  7.681259861279E-17  4.915353569582E-17  3.129496746229E-17
  1.982281161504E-17  1.249108783411E-17  7.829832248846E-18  4.881962508616E-18
  3.027599870501E-18  1.867396348571E-18  1.145460495198E-18  6.987157934518E-19
  4.238075998655E-19  2.555966792185E-19  1.532604698649E-19  9.136153906661E-20
  5.414077032111E-20  3.189204049613E-20  1.867264030324E-20  1.086583225220E-20
  6.283794367675E-21  3.611187056749E-21  2.062122091350E-21  0.000000000000E+00
  0.000000000000E+00  0.000000000000E+00  0.000000000000E+00  0.000000000000E+00
  0.000000000000E+00  0.000000000000E+00  0.000000000000E+00  0.000000000000E+00
  0.000000000000E+00  0.000000000000E+00  0.000000000000E+00  0.000000000000E+00
  0.000000000000E+00  0.000000000000E+00  0.000000000000E+00  0.000000000000E+00
  0.000000000000E+00
</data>
</radfunc>
</valence-charge>
<pseudocore-charge matching-radius="0.401508927164"
 number-of-continuous-derivatives="4">
<annotation model-charge-form="Teter function with specified parameters" />
<radfunc>
<data npts="290">
  2.667906148953E+02  2.667496216128E+02  2.666270994688E+02  2.664227590120E+02
  2.661387981221E+02  2.657656715125E+02  2.652905407632E+02  2.647470448496E+02
  2.640728980312E+02  2.633450976398E+02  2.625260776092E+02  2.616374638613E+02
  2.605657536157E+02  2.594490678137E+02  2.583361838849E+02  2.570575875510E+02
  2.555895853184E+02  2.542023596839E+02  2.526478298970E+02  2.509070176236E+02
  2.489591131997E+02  2.472364758035E+02  2.453542417625E+02  2.432990368388E+02
  2.410566619053E+02  2.386121077212E+02  2.359495882808E+02  2.337997542462E+02
  2.315108395761E+02  2.290754656764E+02  2.264861125237E+02  2.237351601983E+02
  2.208149392152E+02  2.177177907053E+02  2.144361375421E+02  2.109625675367E+02
  2.072899298251E+02  2.034114455393E+02  2.007083037907E+02  1.979091607342E+02
  1.950124537645E+02  1.920167890438E+02  1.889209651015E+02  1.857239979599E+02
  1.824251477644E+02  1.790239468759E+02  1.755202293553E+02  1.719141617393E+02
  1.682062749748E+02  1.643974973366E+02  1.604891881120E+02  1.564831717851E+02
  1.523817724022E+02  1.481878477398E+02  1.439048228349E+02  1.395367223691E+02
  1.350882013306E+02  1.305645733021E+02  1.259718356519E+02  1.213166908293E+02
  1.166065628973E+02  1.118496083663E+02  1.070547203366E+02  1.022315249083E+02
  9.739036878608E+01  9.254229699284E+01  8.769901961718E+01  8.528300921831E+01
  8.287286656220E+01  8.047022018536E+01  7.807672933781E+01  7.569408139800E+01
  7.332398905677E+01  7.096818726720E+01  6.862842995823E+01  6.630648651099E+01
  6.400413799820E+01  6.172317318841E+01  5.946538431832E+01  5.723256263810E+01
  5.502649373655E+01  5.284895265451E+01  5.070169879734E+01  4.858647065918E+01
  4.650498037390E+01  4.445890811003E+01  4.244989632951E+01  4.047954393204E+01
  3.854940031003E+01  3.666095934091E+01  3.481565334664E+01  3.301484705255E+01
  3.125983157990E+01  2.955181850925E+01  2.789193405365E+01  2.628121338292E+01
  2.472059514213E+01  2.321091620894E+01  2.175290673596E+01  2.034718552524E+01
  1.899425578267E+01  1.769450130034E+01  1.644818311470E+01  1.525543668758E+01
  1.411626965588E+01  1.303056019395E+01  1.199805602988E+01  1.101837415433E+01
  1.009100125588E+01  9.215294913130E+00  8.390485567958E+00  7.615679298593E+00
  6.889861404492E+00  6.211900807596E+00  5.580555266648E+00  4.994477392652E+00
  4.452221444562E+00  3.952250874806E+00  3.492946584520E+00  3.072615838412E+00
  2.689501779207E+00  2.341793471750E+00  2.027636397295E+00  1.745143309366E+00
  1.492405354168E+00  1.267503350941E+00  1.068519121147E+00  8.935467501922E-01
  7.407036616156E-01  6.081413816376E-01  4.940558717309E-01  3.966973086477E-01
  3.143791952265E-01  2.454866913783E-01  1.884840629781E-01  1.419211569355E-01
  1.044388234400E-01  7.477322114530E-02  5.175895769624E-02  3.433103625412E-02
  2.152559825028E-02  1.247947310304E-02  6.428566657009E-03  2.705141159724E-03
  7.340601652291E-04  2.809129986357E-05  1.823777846440E-04  8.682054267048E-04
  1.826204938672E-03  2.859139433049E-03  3.824433347726E-03  4.626601554459E-03
  5.209735757826E-03  5.550199406455E-03  5.649672250639E-03  5.528671581668E-03
  5.220659425875E-03  4.766824043848E-03  4.211600652930E-03  3.598971130880E-03
  2.969556459066E-03  2.358489788821E-03  1.794033265255E-03  1.296879111113E-03
  8.800558953513E-04  5.493452162530E-04  3.041028912604E-04  1.383726389495E-04
  4.217939935702E-05  2.893839660095E-06  6.568928780921E-06  3.916315875137E-05
  8.758221141897E-05  1.404905706158E-04  1.888655580820E-04  2.262872345811E-04
  2.489772589739E-04  2.556169241592E-04  2.469881483247E-04  2.254904047758E-04
  1.945909558723E-04  1.582652140930E-04  1.204788674737E-04  8.475422935737E-05
  5.385107907168E-05  2.957827188450E-05  1.273797506705E-05  3.190910561165E-06
  1.971710466768E-08  1.759507754030E-06  6.660565611069E-06  1.294814007026E-05
  1.904827072990E-05  2.375583091754E-05  2.633053412068E-05  2.651721977155E-05
  2.449696631710E-05  2.078417802306E-05  1.609070653592E-05  1.118063032903E-05
  6.738333251709E-06  3.268313127779E-06  1.038492709022E-06  7.082855231096E-08
  0.000000000000E+00  0.000000000000E+00  0.000000000000E+00  0.000000000000E+00
  0.000000000000E+00  0.000000000000E+00  0.000000000000E+00  0.000000000000E+00
  0.000000000000E+00  0.000000000000E+00  0.000000000000E+00  0.000000000000E+00
  0.000000000000E+00  0.000000000000E+00  0.000000000000E+00  0.000000000000E+00
  0.000000000000E+00  0.000000000000E+00  0.000000000000E+00  0.000000000000E+00
  0.000000000000E+00  0.000000000000E+00  0.000000000000E+00  0.000000000000E+00
  0.000000000000E+00  0.000000000000E+00  0.000000000000E+00  0.000000000000E+00
  0.000000000000E+00  0.000000000000E+00  0.000000000000E+00  0.000000000000E+00
  0.000000000000E+00  0.000000000000E+00  0.000000000000E+00  0.000000000000E+00
  0.000000000000E+00  0.000000000000E+00  0.000000000000E+00  0.000000000000E+00
  0.000000000000E+00  0.000000000000E+00  0.000000000000E+00  0.000000000000E+00
  0.000000000000E+00  0.000000000000E+00  0.000000000000E+00  0.000000000000E+00
  0.000000000000E+00  0.000000000000E+00  0.000000000000E+00  0.000000000000E+00
  0.000000000000E+00  0.000000000000E+00  0.000000000000E+00  0.000000000000E+00
  0.000000000000E+00  0.000000000000E+00  0.000000000000E+00  0.000000000000E+00
  0.000000000000E+00  0.000000000000E+00  0.000000000000E+00  0.000000000000E+00
  0.000000000000E+00  0.000000000000E+00  0.000000000000E+00  0.000000000000E+00
  0.000000000000E+00  0.000000000000E+00  0.000000000000E+00  0.000000000000E+00
  0.000000000000E+00  0.000000000000E+00  0.000000000000E+00  0.000000000000E+00
  0.000000000000E+00  0.000000000000E+00  0.000000000000E+00  0.000000000000E+00
  0.000000000000E+00  0.000000000000E+00  0.000000000000E+00  0.000000000000E+00
  0.000000000000E+00  0.000000000000E+00
</data>
</radfunc>
</pseudocore-charge>
<semilocal-potentials set="scalar_relativistic">
<slps n="3" l="s" rc="1.20310174358" eref="-3.75348982023">
<radfunc>
<data npts="290">
 -1.915123483154E+01 -1.915252030905E+01 -1.915636180853E+01 -1.916276679995E+01
 -1.917166374487E+01 -1.918334780583E+01 -1.919821518602E+01 -1.921520690588E+01
 -1.923626118346E+01 -1.925896365556E+01 -1.928447744842E+01 -1.931211830157E+01
 -1.934539780736E+01 -1.938000793867E+01 -1.941443315986E+01 -1.945390165500E+01
 -1.949910755340E+01 -1.954171846497E+01 -1.958934401216E+01 -1.964252027707E+01
 -1.970182624734E+01 -1.975410053903E+01 -1.981103149998E+01 -1.987297128185E+01
 -1.994028558265E+01 -2.001335112991E+01 -2.009255229986E+01 -2.015621288611E+01
 -2.022370580374E+01 -2.029519168833E+01 -2.037082696250E+01 -2.045076164555E+01
 -2.053513683030E+01 -2.062408179696E+01 -2.071771073478E+01 -2.081611904246E+01
 -2.091937918035E+01 -2.102753605035E+01 -2.110236858748E+01 -2.117937808794E+01
 -2.125855061599E+01 -2.133986304232E+01 -2.142328215643E+01 -2.150876373445E+01
 -2.159625156365E+01 -2.168567642522E+01 -2.177695503761E+01 -2.186998896353E+01
 -2.196466348402E+01 -2.206084644414E+01 -2.215838707547E+01 -2.225711480148E+01
 -2.235683803283E+01 -2.245734296064E+01 -2.255839235687E+01 -2.265972439196E+01
 -2.276105148114E+01 -2.286205917211E+01 -2.296240508787E+01 -2.306171794002E+01
 -2.315959662913E+01 -2.325560945026E+01 -2.334929342295E+01 -2.344015376695E+01
 -2.352766354581E+01 -2.361126350253E+01 -2.369036211252E+01 -2.372802980556E+01
 -2.376433588074E+01 -2.379919749911E+01 -2.383252991101E+01 -2.386424649076E+01
 -2.389425877690E+01 -2.392247651797E+01 -2.394880772429E+01 -2.397315872586E+01
 -2.399543423668E+01 -2.401553742569E+01 -2.403336999468E+01 -2.404883226322E+01
 -2.406182326111E+01 -2.407224082834E+01 -2.407998172294E+01 -2.408494173688E+01
 -2.408701582026E+01 -2.408609821403E+01 -2.408208259131E+01 -2.407486220768E+01
 -2.406433006046E+01 -2.405037905725E+01 -2.403290219378E+01 -2.401179274136E+01
 -2.398694444382E+01 -2.395825172433E+01 -2.392560990198E+01 -2.388891541828E+01
 -2.384806607373E+01 -2.380296127439E+01 -2.375350228867E+01 -2.369959251421E+01
 -2.364113775518E+01 -2.357804650981E+01 -2.351023026843E+01 -2.343760382201E+01
 -2.336008558147E+01 -2.327759790786E+01 -2.319006745365E+01 -2.309742551554E+01
 -2.299960839904E+01 -2.289655779550E+01 -2.278822117207E+01 -2.267455217540E+01
 -2.255551105007E+01 -2.243106507277E+01 -2.230118900378E+01 -2.216586555705E+01
 -2.202508589119E+01 -2.187885012325E+01 -2.172716786810E+01 -2.157005880641E+01
 -2.140755328468E+01 -2.123969295139E+01 -2.106653143379E+01 -2.088813506062E+01
 -2.070458363663E+01 -2.051597127554E+01 -2.032240729899E+01 -2.012401720973E+01
 -1.992094374849E+01 -1.971334804455E+01 -1.950141087157E+01 -1.928533402072E+01
 -1.906534180441E+01 -1.884168270486E+01 -1.861463118221E+01 -1.838448965754E+01
 -1.815159068627E+01 -1.791629933679E+01 -1.767901578796E+01 -1.744017815703E+01
 -1.720026556573E+01 -1.695980144686E+01 -1.671935708645E+01 -1.647955538620E+01
 -1.624107481749E+01 -1.600465352127E+01 -1.577109348709E+01 -1.554126471859E+01
 -1.531610926324E+01 -1.509664494992E+01 -1.488396864122E+01 -1.467925878165E+01
 -1.448377682609E+01 -1.429886732150E+01 -1.412595920178E+01 -1.396056596880E+01