<?xml version="1.0" encoding="UTF-8" ?>
<psml version="1.1" energy_unit="hartree" length_unit="bohr"
 uuid="1c21e750-1d60-11e8-6a64-e714feea2859"
 xmlns="http://esl.cecam.org/PSML/ns/1.1">
<provenance creator="ONCVPSP-3.3.0+psml-3.3.0-73 (scalar-relativistic)"
 date="2018-03-01">
<annotation action="semilocal-pseudopotential-generation"
 action-cont="projectors-generation" />
<input-file name="oncvpsp-input">
<![CDATA[# atsym z nc nv iexc psfile
Zr 40 6 4 -116133 upf
# n l f
1 0 2.0
2 0 2.0
2 1 6.0
3 0 2.0
3 1 6.0
3 2 10.0
4 0 2.0
4 1 6.0
4 2 2.0
5 0 2.0
# lmax
2
# l rc ep ncon nbas qcut
0 1.55 0.0 4 8 7.4
1 1.55 0.0 4 8 8.0
2 1.5 0.0 4 8 7.8
# lloc lpopt rc5 dvloc0
4 5 1.45 0.0
# l nproj debl
0 2 1.0
1 2 2.0
2 2 2.0
# icmod fcfact
3 5 1.35
# epsh1 epsh2 depsh
-12.0 12.0 0.02
# rlmax drl
6.0 0.01
 0
]]>
</input-file>
</provenance>
<pseudo-atom-spec atomic-label="Zr" atomic-number="40" z-pseudo="12"
 flavor="Hamann&apos;s oncvpsp" relativity="scalar" spin-dft="no"
 core-corrections="yes">
<annotation pseudo-energy="-47.1069859123" />
<exchange-correlation>
<annotation oncvpsp-xc-code="-116133" oncvpsp-xc-type="libxc-interface" />
<libxc-info number-of-functionals="2">
<functional name="Perdew, Burke &amp; Ernzerhof SOL (GGA)" type="exchange"
 id="116" />
<functional name="Perdew, Burke &amp; Ernzerhof SOL (GGA)" type="correlation"
 id="133" />
</libxc-info>
</exchange-correlation>
<valence-configuration total-valence-charge="12">
<shell n="4" l="s" occupation="2" />
<shell n="4" l="p" occupation="6" />
<shell n="4" l="d" occupation="2" />
<shell n="5" l="s" occupation="2" />
</valence-configuration>
</pseudo-atom-spec>
<grid npts="457">
<annotation type="sampled from oncvpsp log grid"
 recipe="r(i:1..N) = r1*exp(a*(i-1)) + r=0; resampled"
 recipe-cont="r1: scale; a: step" scale="0.125000000000E-04"
 step="0.119285708653E-01" delta="0.500000000000E-02" rmax="44.1649575951" />
<grid-data>
  0.000000000000E+00  5.043218706865E-03  1.007343358937E-02  1.511175669823E-02
  2.012089306008E-02  2.523928167219E-02  3.054676265355E-02  3.567071815465E-02
  4.067218371481E-02  4.582501498060E-02  5.101844624570E-02  5.612693518305E-02
  6.174693831073E-02  6.712418346252E-02  7.296970714298E-02  7.838368526344E-02
  8.419935280047E-02  8.937402475208E-02  9.486671850454E-02  1.006969788457E-01
  1.068855517351E-01  1.121091483444E-01  1.175880269923E-01  1.233346635500E-01
  1.293621435963E-01  1.356841922146E-01  1.423152052457E-01  1.475002787239E-01
  1.528742637588E-01  1.584440431028E-01  1.642167502724E-01  1.701997786849E-01
  1.764007911272E-01  1.828277295701E-01  1.894888253401E-01  1.963926096616E-01
  2.035479245832E-01  2.109639343024E-01  2.160574475322E-01  2.212739385454E-01
  2.266163765177E-01  2.320878023123E-01  2.376913302113E-01  2.434301496880E-01
  2.493075272220E-01  2.553268081593E-01  2.614914186155E-01  2.678048674265E-01
  2.742707481457E-01  2.808927410889E-01  2.876746154297E-01  2.946202313447E-01
  3.017335422103E-01  3.090185968534E-01  3.164795418558E-01  3.241206239144E-01
  3.319461922582E-01  3.399607011241E-01  3.481687122920E-01  3.565748976816E-01
  3.651840420112E-01  3.740010455215E-01  3.830309267646E-01  3.922788254604E-01
  4.017500054223E-01  4.114498575532E-01  4.213839029140E-01  4.264405097490E-01
  4.315577958659E-01  4.367364894163E-01  4.419773272893E-01  4.472810552168E-01
  4.526484278794E-01  4.580802090140E-01  4.635771715221E-01  4.691400975804E-01
  4.747697787514E-01  4.804670160964E-01  4.862326202895E-01  4.920674117330E-01
  4.979722206738E-01  5.039478873219E-01  5.099952619697E-01  5.161152051134E-01
  5.223085875747E-01  5.285762906256E-01  5.349192061131E-01  5.413382365865E-01
  5.478342954255E-01  5.544083069706E-01  5.610612066543E-01  5.677939411341E-01
  5.746074684278E-01  5.815027580489E-01  5.884807911455E-01  5.955425606392E-01
  6.026890713669E-01  6.099213402233E-01  6.172403963060E-01  6.246472810616E-01
  6.321430484344E-01  6.397287650156E-01  6.474055101958E-01  6.551743763181E-01
  6.630364688340E-01  6.709929064600E-01  6.790448213375E-01  6.871933591935E-01
  6.954396795039E-01  7.037849556579E-01  7.122303751258E-01  7.207771396273E-01
  7.294264653028E-01  7.381795828865E-01  7.470377378811E-01  7.560021907357E-01
  7.650742170245E-01  7.742551076288E-01  7.835461689203E-01  7.929487229474E-01
  8.024641076228E-01  8.120936769142E-01  8.218388010372E-01  8.317008666496E-01
  8.416812770494E-01  8.517814523740E-01  8.620028298025E-01  8.723468637602E-01
  8.828150261253E-01  8.934088064388E-01  9.041297121160E-01  9.149792686614E-01
  9.259590198854E-01  9.370705281240E-01  9.483153744615E-01  9.596951589550E-01
  9.712115008625E-01  9.828660388728E-01  9.946604313393E-01  1.006596356515E+00
  1.018675512794E+00  1.030899618947E+00  1.043270414374E+00  1.055789659347E+00
  1.068459135259E+00  1.081280644882E+00  1.094256012621E+00  1.107387084772E+00
  1.120675729790E+00  1.134123838547E+00  1.147733324610E+00  1.161506124505E+00
  1.175444197999E+00  1.189549528375E+00  1.203824122715E+00  1.218270012188E+00
  1.232889252334E+00  1.247683923362E+00  1.262656130443E+00  1.277808004008E+00
  1.293141700056E+00  1.308659400457E+00  1.324363313262E+00  1.340255673021E+00
  1.356338741098E+00  1.372614805991E+00  1.389086183663E+00  1.405755217867E+00
  1.422624280481E+00  1.439695771847E+00  1.456972121109E+00  1.474455786562E+00
  1.492149256001E+00  1.510055047073E+00  1.528175707638E+00  1.546513816130E+00
  1.565071981923E+00  1.583852845706E+00  1.602859079855E+00  1.622093388813E+00
  1.641558509479E+00  1.661257211592E+00  1.681192298131E+00  1.701366605709E+00
  1.721783004978E+00  1.742444401037E+00  1.763353733850E+00  1.784513978656E+00
  1.805928146400E+00  1.827599284157E+00  1.849530475566E+00  1.871724841273E+00
  1.894185539369E+00  1.916915765841E+00  1.939918755031E+00  1.963197780091E+00
  1.986756153453E+00  2.010597227294E+00  2.034724394022E+00  2.059141086750E+00
  2.083850779791E+00  2.108856989148E+00  2.134163273018E+00  2.159773232294E+00
  2.185690511082E+00  2.211918797215E+00  2.238461822781E+00  2.265323364655E+00
  2.292507245031E+00  2.320017331971E+00  2.347857539955E+00  2.376031830434E+00
  2.404544212399E+00  2.433398742948E+00  2.462599527863E+00  2.492150722198E+00
  2.522056530864E+00  2.552321209235E+00  2.582949063745E+00  2.613944452510E+00
  2.645311785940E+00  2.677055527372E+00  2.709180193700E+00  2.741690356025E+00
  2.774590640297E+00  2.807885727980E+00  2.841580356716E+00  2.875679320997E+00
  2.910187472849E+00  2.945109722523E+00  2.980451039193E+00  3.016216451664E+00
  3.052411049083E+00  3.089039981672E+00  3.126108461453E+00  3.163621762990E+00
  3.201585224146E+00  3.240004246836E+00  3.278884297798E+00  3.318230909371E+00
  3.358049680284E+00  3.398346276447E+00  3.439126431764E+00  3.480395948946E+00
  3.522160700333E+00  3.564426628737E+00  3.607199748282E+00  3.650486145261E+00
  3.694291979004E+00  3.738623482752E+00  3.783486964545E+00  3.828888808120E+00
  3.874835473817E+00  3.921333499503E+00  3.968389501497E+00  4.016010175515E+00
  4.064202297621E+00  4.112972725193E+00  4.162328397895E+00  4.212276338670E+00
  4.262823654734E+00  4.313977538591E+00  4.365745269054E+00  4.418134212282E+00
  4.471151822830E+00  4.524805644704E+00  4.579103312440E+00  4.634052552190E+00
  4.689661182816E+00  4.745937117010E+00  4.802888362414E+00  4.860523022763E+00
  4.918849299036E+00  4.977875490624E+00  5.037609996512E+00  5.098061316470E+00
  5.159238052268E+00  5.221148908895E+00  5.283802695802E+00  5.347208328151E+00
  5.411374828089E+00  5.476311326026E+00  5.542027061938E+00  5.608531386682E+00
  5.675833763322E+00  5.743943768482E+00  5.812871093703E+00  5.882625546828E+00
  5.953217053390E+00  6.024655658030E+00  6.096951525927E+00  6.170114944238E+00
  6.244156323569E+00  6.319086199452E+00  6.394915233845E+00  6.471654216651E+00
  6.549314067251E+00  6.627905836058E+00  6.707440706091E+00  6.787929994564E+00
  6.869385154499E+00  6.951817776353E+00  7.035239589669E+00  7.119662464745E+00
  7.205098414322E+00  7.291559595294E+00  7.379058310437E+00  7.467607010162E+00
  7.557218294284E+00  7.647904913816E+00  7.739679772782E+00  7.832555930055E+00
  7.926546601216E+00  8.021665160430E+00  8.117925142355E+00  8.215340244064E+00
  8.313924326992E+00  8.413691418916E+00  8.514655715943E+00  8.616831584535E+00
  8.720233563549E+00  8.824876366312E+00  8.930774882707E+00  9.037944181300E+00
  9.146399511475E+00  9.256156305613E+00  9.367230181280E+00  9.479636943456E+00
  9.593392586777E+00  9.708513297819E+00  9.825015457392E+00  9.942915642881E+00
  1.006223063060E+01  1.018297739816E+01  1.030517312694E+01  1.042883520446E+01
  1.055398122692E+01  1.068062900164E+01  1.080879654966E+01  1.093850210826E+01
  1.106976413356E+01  1.120260130316E+01  1.133703251880E+01  1.147307690902E+01
  1.161075383193E+01  1.175008287791E+01  1.189108387245E+01  1.203377687892E+01
  1.217818220146E+01  1.232432038788E+01  1.247221223254E+01  1.262187877933E+01
  1.277334132468E+01  1.292662142057E+01  1.308174087762E+01  1.323872176815E+01
  1.339758642937E+01  1.355835746652E+01  1.372105775612E+01  1.388571044920E+01
  1.405233897459E+01  1.422096704228E+01  1.439161864679E+01  1.456431807055E+01
  1.473908988740E+01  1.491595896604E+01  1.509495047364E+01  1.527608987932E+01
  1.545940295787E+01  1.564491579337E+01  1.583265478289E+01  1.602264664028E+01
  1.621491839997E+01  1.640949742077E+01  1.660641138981E+01  1.680568832649E+01
  1.700735658641E+01  1.721144486545E+01  1.741798220383E+01  1.762699799028E+01
  1.783852196616E+01  1.805258422976E+01  1.826921524051E+01  1.848844582340E+01
  1.871030717328E+01  1.893483085936E+01  1.916204882967E+01  1.939199341563E+01
  1.962469733662E+01  1.986019370465E+01  2.009851602911E+01  2.033969822146E+01
  2.058377460012E+01  2.083077989532E+01  2.108074925406E+01  2.133371824511E+01
  2.158972286405E+01  2.184879953842E+01  2.211098513288E+01  2.237631695448E+01
  2.264483275793E+01  2.291657075103E+01  2.319156960004E+01  2.346986843524E+01
  2.375150685646E+01  2.403652493874E+01  2.432496323800E+01  2.461686279686E+01
  2.491226515042E+01  2.521121233223E+01  2.551374688021E+01  2.581991184278E+01
  2.612975078489E+01  2.644330779431E+01  2.676062748784E+01  2.708175501769E+01
  2.740673607791E+01  2.773561691084E+01  2.806844431377E+01  2.840526564554E+01
  2.874612883328E+01  2.909108237928E+01  2.944017536783E+01  2.979345747225E+01
  3.015097896191E+01  3.051279070946E+01  3.087894419797E+01  3.124949152835E+01
  3.162448542669E+01  3.200397925181E+01  3.238802700283E+01  3.277668332686E+01
  3.317000352679E+01  3.356804356911E+01  3.397086009194E+01  3.437851041304E+01
  3.479105253800E+01  3.520854516845E+01  3.563104771047E+01  3.605862028300E+01
  3.649132372639E+01  3.692921961111E+01  3.737237024644E+01  3.782083868940E+01
  3.827468875368E+01  3.873398501872E+01  3.919879283894E+01  3.966917835301E+01
  4.014520849325E+01  4.062695099517E+01  4.111447440711E+01  4.160784809999E+01
  4.210714227719E+01  4.261242798452E+01  4.312377712033E+01  4.364126244578E+01
  4.416495759513E+01
</grid-data>
</grid>
<valence-charge total-charge="12" is-unscreening-charge="yes"
 rescaled-to-z-pseudo="no">
<radfunc>
<data npts="457">
  8.441856462469E-02  8.470898559362E-02  8.557749420976E-02  8.702760922966E-02
  8.904614467017E-02  9.170451752942E-02  9.509951897646E-02  9.899664333393E-02
  1.033907277193E-01  1.085312201440E-01  1.143464729216E-01  1.206925448371E-01
  1.283973001654E-01  1.364852146233E-01  1.460800610950E-01  1.557205395969E-01
  1.668936682342E-01  1.775556122516E-01  1.896241903738E-01  2.032920029546E-01
  2.187796498522E-01  2.326488475893E-01  2.479905054260E-01  2.649684744129E-01
  2.837660758016E-01  3.045885701955E-01  3.276659436510E-01  3.466077057139E-01
  3.670824231370E-01  3.892211270767E-01  4.131666913614E-01  4.390749145231E-01
  4.671156860504E-01  4.974742378521E-01  5.303524799996E-01  5.659704172308E-01
  6.045676392950E-01  6.464048738015E-01  6.762353680095E-01  7.077212870001E-01
  7.409575915537E-01  7.760444764443E-01  8.130875739082E-01  8.521981473892E-01
  8.934932714477E-01  9.370959930046E-01  9.831354682903E-01  1.031747068967E+00
  1.083072449893E+00  1.137259569890E+00  1.194462655654E+00  1.254842097620E+00
  1.318564265137E+00  1.385801226776E+00  1.456730359908E+00  1.531533831966E+00
  1.610397933981E+00  1.693512245121E+00  1.781068605108E+00  1.873259869555E+00
  1.970278421559E+00  2.072314411348E+00  2.179553694520E+00  2.292175438554E+00
  2.410349366935E+00  2.534232610580E+00  2.663966137522E+00  2.731065410778E+00
  2.799670734089E+00  2.869793315697E+00  2.941442514524E+00  3.014625672866E+00
  3.089347941222E+00  3.165612095249E+00  3.243418344900E+00  3.322764135848E+00
  3.403643943359E+00  3.486049058826E+00  3.569967369273E+00  3.655383130176E+00
  3.742276732060E+00  3.830624461409E+00  3.920398256511E+00  4.011565458982E+00
  4.104088561804E+00  4.197924954839E+00  4.293026668891E+00  4.389340119543E+00
  4.486805852087E+00  4.585358289052E+00  4.684925481947E+00  4.785428868998E+00
  4.886783040814E+00  4.988895516058E+00  5.091666529362E+00  5.194988833883E+00
  5.298747521048E+00  5.402819860159E+00  5.507075160720E+00  5.611374660421E+00
  5.715571441893E+00  5.819510381398E+00  5.923028132758E+00  6.025953149871E+00
  6.128105751204E+00  6.229298229695E+00  6.329335011469E+00  6.428012866736E+00
  6.525121176154E+00  6.620442255835E+00  6.713751743972E+00  6.804819051897E+00
  6.893407882082E+00  6.979276815286E+00  7.062179968703E+00  7.141867726495E+00
  7.218087543652E+00  7.290584823530E+00  7.359103868862E+00  7.423388905319E+00
  7.483185176030E+00  7.538240104660E+00  7.588304523843E+00  7.633133964904E+00
  7.672490003874E+00  7.706141657907E+00  7.733866825217E+00  7.755453760700E+00
  7.770702578434E+00  7.779426771271E+00  7.781454736818E+00  7.776631298176E+00
  7.764819206947E+00  7.745900615245E+00  7.719778502688E+00  7.686378043774E+00
  7.645647900459E+00  7.597561424418E+00  7.542117753179E+00  7.479342784197E+00
  7.409290011027E+00  7.332041205957E+00  7.247706933900E+00  7.156426882971E+00
  7.058369998021E+00  6.953734404463E+00  6.842747111030E+00  6.725663481679E+00
  6.602766468601E+00  6.474365600428E+00  6.340795721998E+00  6.202415484636E+00
  6.059605588770E+00  5.912766783775E+00  5.762317633284E+00  5.608692057745E+00
  5.452336669724E+00  5.293707921334E+00  5.133269087089E+00  4.971487109445E+00
  4.808829338143E+00  4.645760198152E+00  4.482737824390E+00  4.320210704346E+00
  4.158614372118E+00  3.998368199069E+00  3.839872327187E+00  3.683504791162E+00
  3.529618874123E+00  3.378540739834E+00  3.230567380915E+00  3.085964918380E+00
  2.944967282617E+00  2.807775300021E+00  2.674556121813E+00  2.545442747204E+00
  2.420533823120E+00  2.299895357377E+00  2.183566604198E+00  2.071567814447E+00
  1.963902261514E+00  1.860556490104E+00  1.761501915945E+00  1.666695939805E+00
  1.576083136283E+00  1.489596423730E+00  1.407158215808E+00  1.328681549705E+00
  1.254071184582E+00  1.183224665895E+00  1.116033351278E+00  1.052383394307E+00
  9.921566830326E-01  9.352317307082E-01  8.814845166501E-01  8.307892756662E-01
  7.830192349560E-01  7.380472978309E-01  6.957466740247E-01  6.559914567562E-01
  6.186571470736E-01  5.836211263535E-01  5.507630781359E-01  5.199653607684E-01
  4.911133325874E-01  4.640956315927E-01  4.388044117724E-01  4.151355383992E-01
  3.929887447519E-01  3.722677528137E-01  3.528803605575E-01  3.347384984513E-01
  3.177582578011E-01  3.018598934966E-01  2.869678036453E-01  2.730104884670E-01
  2.599204907264E-01  2.476343196427E-01  2.360923605878E-01  2.252387720435E-01
  2.150213716982E-01  2.053915132407E-01  1.963039553503E-01  1.877167242995E-01
  1.795909715240E-01  1.718908274467E-01  1.645832527864E-01  1.576378885141E-01
  1.510269055527E-01  1.447248552353E-01  1.387085214508E-01  1.329567753129E-01
  1.274504330917E-01  1.221721180449E-01  1.171061266875E-01  1.122382999451E-01
  1.075558995409E-01  1.030474898855E-01  9.870282566150E-02  9.451274522281E-02
  9.046906987351E-02  8.656450903191E-02  8.279257124396E-02  7.914748096872E-02
  7.562410102648E-02  7.221786057197E-02  6.892468843242E-02  6.574095163119E-02
  6.266339890299E-02  5.968910899430E-02  5.681544353379E-02  5.404000425054E-02
  5.136059431334E-02  4.877518356128E-02  4.628187739499E-02  4.387888909779E-02
  4.156451535806E-02  3.933711476687E-02  3.719508906918E-02  3.513686695269E-02
  3.316089016476E-02  3.126560175649E-02  2.944943626201E-02  2.771081163213E-02
  2.604812275369E-02  2.445973639889E-02  2.294398746358E-02  2.149917636797E-02
  2.012356750840E-02  1.881538865431E-02  1.757283125682E-02  1.639405149497E-02
  1.527717210197E-02  1.422028486457E-02  1.322145375345E-02  1.227871863355E-02
  1.139009950007E-02  1.055360118116E-02  9.767218441303E-03  9.028941412446E-03
  8.336761272505E-03  7.688676085245E-03  7.082696711470E-03  6.516852700073E-03
  5.989198068810E-03  5.497816888808E-03  5.040828593555E-03  4.616392942073E-03
  4.222714576642E-03  3.858047127217E-03  3.520696827037E-03  3.209025616257E-03
  2.921453722316E-03  2.656461716779E-03  2.412592058277E-03  2.188450139722E-03
  1.982704865109E-03  1.794088786892E-03  1.621397839187E-03  1.463490704958E-03
  1.319287857078E-03  1.187770313781E-03  1.067978148704E-03  9.590087946665E-04
  8.600151785805E-04  7.702037227148E-04  6.888322449129E-04  6.152077875543E-04
  5.486844020514E-04  4.886609126277E-04  4.345786800952E-04  3.859193834009E-04
  3.422028339074E-04  3.029848347448E-04  2.678550951651E-04  2.364352076514E-04
  2.083766936195E-04  1.833591218722E-04  1.610883025531E-04  1.412945581597E-04
  1.237310722145E-04  1.081723154249E-04  9.441254857288E-05  8.226440092807E-05
  7.155752265515E-05  6.213730945826E-05  5.386369755316E-05  4.661002695865E-05
  4.026197103791E-05  3.471653018419E-05  2.988108752289E-05  2.567252448643E-05
  2.201639410520E-05  1.884614984368E-05  1.610242779543E-05  1.373238003385E-05
  1.168905689902E-05  9.930835985145E-06  8.420895581825E-06  7.126730314935E-06
  6.019706733402E-06  5.074656596032E-06  4.269505629856E-06  3.584935558380E-06
  3.004077234924E-06  2.512232762808E-06  2.096624540024E-06  1.746169230490E-06
  1.451274736175E-06  1.203658323171E-06  9.961841390909E-07  8.227184477887E-07
  6.780009991031E-07  5.575310449805E-07  4.574666078495E-07  3.745357014416E-07
  3.059582974866E-07  2.493779230325E-07  2.028018618456E-07  1.645490188563E-07
  1.332045884444E-07  1.075807451437E-07  8.668264882184E-08  6.967912536715E-08
  5.587744831768E-08  4.470170665190E-08  3.567429918714E-08  2.840014678176E-08
  2.255325995379E-08  1.786534178441E-08  1.411614426782E-08  1.112533082147E-08
  8.745628713560E-09  6.857082939719E-09  5.362247830724E-09  4.182174639868E-09
  3.253072778833E-09  2.523539474177E-09  1.952267622079E-09  1.506154735018E-09
  1.158747296232E-09  8.889647485070E-10  6.800559119554E-10  5.187480063156E-10
  3.945547886307E-10  2.992157358762E-10  2.262428203451E-10  1.705553477939E-10
  1.281866476806E-10  9.604920409080E-11  7.174716835121E-11  5.342716426576E-11
  3.965994076653E-11  2.934679369985E-11  2.164581110835E-11  1.591393156099E-11
  1.166157450445E-11  8.517232389983E-12  6.199929599658E-12  4.497872595726E-12
  3.251955847996E-12  2.343062937769E-12  1.682323511616E-12  1.203664249563E-12
  8.581338602097E-13  6.095950166281E-13  4.314660018351E-13  3.042641452219E-13
  1.436453451204E-13  9.958527800768E-14  6.875627825094E-14  4.727395278513E-14
  3.236698461096E-14  2.206640040413E-14  1.497916362886E-14  1.012390512573E-14
  6.812246198020E-15  4.563430346491E-15  3.043183296116E-15  2.020118645964E-15
  1.334793000389E-15  8.778395556916E-16  5.745874878943E-16  3.742935016423E-16
  2.426378360464E-16  1.565199070202E-16  1.004661722935E-16  6.416281880363E-17
  4.076937834687E-17  2.577183081662E-17  1.620653281293E-17  1.013774628095E-17
  6.307709186145E-18  3.903489252569E-18  2.402465723095E-18  1.470468624806E-18
  8.949933191967E-19  5.416516400019E-19  3.259319876120E-19  1.949892278090E-19
  1.159686659442E-19  6.856246761803E-20  4.029182257911E-20  2.353426623117E-20
  1.366173594996E-20  7.881346111297E-21  4.518056083847E-21  2.573514099200E-21
  1.456437314727E-21  8.188672617277E-22  4.573591462111E-22  2.537397163578E-22
  1.398208572385E-22  0.000000000000E+00  0.000000000000E+00  0.000000000000E+00
  0.000000000000E+00
</data>
</radfunc>
</valence-charge>
<pseudocore-charge matching-radius="0.831700866650"
 number-of-continuous-derivatives="4">
<annotation model-charge-form="Teter function with specified parameters" />
<radfunc>
<data npts="290">
  3.992974999804E+01  3.992720485630E+01  3.991959657053E+01  3.990690333068E+01
  3.988925535962E+01  3.986605010574E+01  3.983647521642E+01  3.980260926589E+01
  3.976453043168E+01  3.972012420905E+01  3.967007042031E+01  3.961566493123E+01
  3.954991215396E+01  3.948123942628E+01  3.940022908059E+01  3.931932490530E+01
  3.922616332677E+01  3.913785789922E+01  3.903858791599E+01  3.892702371200E+01
  3.880168291259E+01  3.869038816963E+01  3.856829476222E+01  3.843439286768E+01
  3.828758619341E+01  3.812668627368E+01  3.795040677643E+01  3.780727231247E+01
  3.765408109823E+01  3.749017131392E+01  3.731484447047E+01  3.712736447515E+01
  3.692695687339E+01  3.671280831089E+01  3.648406626674E+01  3.623983911552E+01
  3.597919658426E+01  3.570117067864E+01  3.550566815758E+01  3.530168798465E+01
  3.508891768246E+01  3.486703881235E+01  3.463572748565E+01  3.439465496172E+01
  3.414348834070E+01  3.388189135914E+01  3.360952529715E+01  3.332605000622E+01
  3.303112506686E+01  3.272441108573E+01  3.240557114203E+01  3.207427239302E+01
  3.173018784861E+01  3.137299832481E+01  3.100239458546E+01  3.061807968152E+01
  3.021977149615E+01  2.980720550329E+01  2.938013774610E+01  2.893834804013E+01
  2.848164340439E+01  2.800986172124E+01  2.752287562323E+01  2.702059660204E+01
  2.650297933085E+01  2.597002618741E+01  2.542179195976E+01  2.514197708610E+01
  2.485838871164E+01  2.457105061332E+01  2.427999077765E+01  2.398524156129E+01
  2.368683985201E+01  2.338482722959E+01  2.307925012633E+01  2.277015998646E+01
  2.245761342410E+01  2.214167237903E+01  2.182240426987E+01  2.149988214374E+01
  2.117418482193E+01  2.084539704070E+01  2.051360958648E+01  2.017891942466E+01
  1.984142982100E+01  1.950125045484E+01  1.915849752316E+01  1.881329383437E+01
  1.846576889092E+01  1.811605895956E+01  1.776430712824E+01  1.741066334827E+01
  1.705528446094E+01  1.669833420693E+01  1.633998321766E+01  1.598040898713E+01
  1.561979582300E+01  1.525833477568E+01  1.489622354416E+01  1.453366635723E+01
  1.417087382896E+01  1.380806278708E+01  1.344545607317E+01  1.308328231346E+01
  1.272177565914E+01  1.236117549520E+01  1.200172611681E+01  1.164367637240E+01
  1.128727927277E+01  1.093279156552E+01  1.058047327442E+01  1.023058720342E+01
  9.883398405077E+00  9.539173613614E+00  9.198180642768E+00  8.860687749037E+00
  8.526962961049E+00  8.197273376102E+00  7.871884425201E+00  7.551059108222E+00
  7.235057201143E+00  6.924134437633E+00  6.618541667611E+00  6.318523995786E+00
  6.024319903500E+00  5.736160357630E+00  5.454267910629E+00  5.178855796195E+00
  4.910127025425E+00  4.648273488648E+00  4.393475068523E+00  4.145898770278E+00
  3.905697875313E+00  3.673011124625E+00  3.447961938788E+00  3.230657681418E+00
  3.021188973161E+00  2.819629063404E+00  2.626033266860E+00  2.440438472206E+00
  2.262862729791E+00  2.093304925238E+00  1.931744545486E+00  1.778141543419E+00
  1.632436306753E+00  1.494549736238E+00  1.364383437591E+00  1.241820030711E+00
  1.126723578867E+00  1.018940139528E+00  9.182984373803E-01  8.246106588897E-01
  7.376733664780E-01  6.572685290122E-01  5.831646638940E-01  5.151180845690E-01
  4.528742457848E-01  3.961691774383E-01  3.447309963761E-01  2.982814840875E-01
  2.565377168782E-01  2.192137338599E-01  1.860222269785E-01  1.566762363511E-01
  1.308908334242E-01  1.083847739374E-01  8.888210239711E-02  7.211368976436E-02
  5.781868636558E-02  4.574587265143E-02  3.565489137976E-02  2.731734608303E-02
  2.051775229817E-02  1.505432997798E-02  1.073962774780E-02  7.400972191628E-03
  4.880738110152E-03  3.036438640961E-03  1.740637213756E-03  8.806864636993E-04
  3.583023733737E-04  8.898497933695E-05  1.299881149869E-06  3.603744537308E-05
  1.452689216727E-04  2.913206040285E-04  4.456886052703E-04  5.879177061276E-04
  7.044680423913E-04  7.875930737651E-04  8.342513227426E-04  8.450727898537E-04
  8.233987741701E-04  7.744111098298E-04  7.043636485113E-04  6.199252740839E-04
  5.276399481542E-04  4.335053885298E-04  3.426681219693E-04  2.592289779458E-04
  1.861497494335E-04  1.252488785628E-04  7.727175113421E-05  4.201960215782E-05
  1.852021180078E-05  5.223538323958E-06  2.061828767189E-07  1.370059980189E-06
  6.622766003384E-06  1.402976740734E-05  2.193151123938E-05  2.902170995804E-05
  3.438617708904E-05  3.750449613364E-05  3.821931331133E-05  3.668000309138E-05
  3.326875124730E-05  2.851766945796E-05  2.302538965172E-05  1.738073416254E-05
  1.209962301107E-05  7.579513231874E-06  4.073553239898E-06  1.684482853378E-06
  3.763220829145E-07  2.549744014155E-10  3.299762638093E-07  1.101222136343E-06
  2.050281344903E-06  2.946940338157E-06  3.618452155970E-06  3.962576562111E-06
  3.949325925315E-06  3.612563580071E-06  3.033848488120E-06  2.321750394432E-06
  1.590181062993E-06  9.390797773909E-07  4.401110217664E-07  1.290030694853E-07
  4.951853754827E-09  0.000000000000E+00  0.000000000000E+00  0.000000000000E+00
  0.000000000000E+00  0.000000000000E+00  0.000000000000E+00  0.000000000000E+00
  0.000000000000E+00  0.000000000000E+00  0.000000000000E+00  0.000000000000E+00
  0.000000000000E+00  0.000000000000E+00  0.000000000000E+00  0.000000000000E+00
  0.000000000000E+00  0.000000000000E+00  0.000000000000E+00  0.000000000000E+00
  0.000000000000E+00  0.000000000000E+00  0.000000000000E+00  0.000000000000E+00
  0.000000000000E+00  0.000000000000E+00  0.000000000000E+00  0.000000000000E+00
  0.000000000000E+00  0.000000000000E+00  0.000000000000E+00  0.000000000000E+00
  0.000000000000E+00  0.000000000000E+00  0.000000000000E+00  0.000000000000E+00
  0.000000000000E+00  0.000000000000E+00  0.000000000000E+00  0.000000000000E+00
  0.000000000000E+00  0.000000000000E+00  0.000000000000E+00  0.000000000000E+00
  0.000000000000E+00  0.000000000000E+00  0.000000000000E+00  0.000000000000E+00
  0.000000000000E+00  0.000000000000E+00
</data>
</radfunc>
</pseudocore-charge>
<semilocal-potentials set="scalar_relativistic">
<slps n="4" l="s" rc="1.56507198192" eref="-2.00121658799">
<radfunc>
<data npts="290">
  4.033249863786E+01  4.030627231959E+01  4.022800438317E+01  4.009786369246E+01
  3.991782607854E+01  3.968267947694E+01  3.938556578632E+01  3.904884266323E+01
  3.867462046648E+01  3.824397417469E+01  3.776583550182E+01  3.725466926712E+01
  3.664844995007E+01  3.602842367636E+01  3.531366558703E+01  3.461721891681E+01
  3.383595180017E+01  3.311507384548E+01  3.232661215369E+01  3.146702164009E+01
  3.053319202261E+01  2.973095663053E+01  2.887862473333E+01  2.797560440590E+01
  2.702172087458E+01  2.601726928634E+01  2.496306311698E+01  2.414056123452E+01
  2.329162978751E+01  2.241725882386E+01  2.151863440581E+01  2.059713891399E+01
  1.965434847418E+01  1.869202734835E+01  1.771211920529E+01  1.671673527057E+01
  1.570813944686E+01  1.468873059016E+01  1.400435463720E+01  1.331705660033E+01
  1.262762004451E+01  1.193684032129E+01  1.124552118657E+01  1.055447135908E+01
  9.864501054045E+00  9.176418527416E+00  8.491026665564E+00  7.809119655222E+00
  7.131479767000E+00  6.458874284271E+00  5.792052606992E+00  5.131743557410E+00
  4.478652911627E+00  3.833461177629E+00  3.196821636855E+00  2.569358662611E+00
  1.951666324830E+00  1.344307286778E+00  7.478119955320E-01  1.626781643067E-01
 -4.106294588269E-01 -9.716790446337E-01 -1.520071370739E+00 -2.055439258736E+00
 -2.577446777685E+00 -3.085788233569E+00 -3.580186966246E+00 -3.822078959390E+00
 -4.060393977101E+00 -4.295104967699E+00 -4.526186412010E+00 -4.753614269860E+00
 -4.977365925348E+00 -5.197420131090E+00 -5.413756951669E+00 -5.626357706492E+00
 -5.835204912288E+00 -6.040282225449E+00 -6.241574384436E+00 -6.439067152477E+00
 -6.632747260760E+00 -6.822602352331E+00 -7.008620926926E+00 -7.190792286923E+00
 -7.369106484637E+00 -7.543554271138E+00 -7.714127046801E+00 -7.880816813770E+00
 -8.043616130508E+00 -8.202518068616E+00 -8.357516172078E+00 -8.508604419087E+00
 -8.655777186573E+00 -8.799029217587E+00 -8.938355591642E+00 -9.073751698087E+00
 -9.205213212623E+00 -9.332736076999E+00 -9.456316481937E+00 -9.575950853294E+00
 -9.691635841466E+00 -9.803368313989E+00 -9.911145351298E+00 -1.001496424554E+01
 -1.011482250235E+01 -1.021071784542E+01 -1.030264822375E+01 -1.039061182129E+01
 -1.047460706883E+01 -1.055463265785E+01 -1.063068755600E+01 -1.070277102398E+01
 -1.077088263338E+01 -1.083502228524E+01 -1.089519022874E+01 -1.095138707990E+01
 -1.100361383957E+01 -1.105187191049E+01 -1.109616311294E+01 -1.113648969850E+01
 -1.117285436156E+01 -1.120526024823E+01 -1.123371096223E+01 -1.125821056760E+01
 -1.127876358790E+01 -1.129537500189E+01 -1.130805023573E+01 -1.131679515182E+01
 -1.132161603475E+01 -1.132251957487E+01 -1.131951285054E+01 -1.131260331005E+01
 -1.130179875511E+01 -1.128710732767E+01 -1.126853750278E+01 -1.124609809063E+01
 -1.121979825137E+01 -1.118964752734E+01 -1.115565589785E+01 -1.111783386256E+01
 -1.107619256055E+01 -1.103074393281E+01 -1.098150093722E+01 -1.092847782573E+01
 -1.087169049472E+01 -1.081115692009E+01 -1.074689769002E+01 -1.067893664823E+01
 -1.060730166188E+01 -1.053202552779E+01 -1.045314703090E+01 -1.037071216790E+01