<?xml version="1.0" encoding="UTF-8" ?>
<psml version="1.1" energy_unit="hartree" length_unit="bohr"
 uuid="8a98f9e0-1d5f-11e8-4386-87af7efe1722"
 xmlns="http://esl.cecam.org/PSML/ns/1.1">
<provenance creator="ONCVPSP-3.3.0+psml-3.3.0-73 (scalar-relativistic)"
 date="2018-03-01">
<annotation action="semilocal-pseudopotential-generation"
 action-cont="projectors-generation" />
<input-file name="oncvpsp-input">
<![CDATA[# atsym z nc nv iexc psfile
S 16 3 2 -116133 upf
# n l f
1 0 2.0
2 0 2.0
2 1 6.0
3 0 2.0
3 1 4.0
# lmax
2
# l rc ep ncon nbas qcut
0 1.45 0.0 4 9 6.3
1 1.45 0.0 4 9 7.6
2 1.60 0.15 4 9 7.0
# lloc lpopt rc5 dvloc0
4 5 1.4 0.0
# l nproj debl
0 2 2.0
1 2 2.0
2 2 1.0
# icmod fcfact
3 6 1.25
# epsh1 epsh2 depsh
-12.0 12.0 0.02
# rlmax drl
6.0 0.01
 0
]]>
</input-file>
</provenance>
<pseudo-atom-spec atomic-label="S" atomic-number="16" z-pseudo="6"
 flavor="Hamann&apos;s oncvpsp" relativity="scalar" spin-dft="no"
 core-corrections="yes">
<annotation pseudo-energy="-10.0953351195" />
<exchange-correlation>
<annotation oncvpsp-xc-code="-116133" oncvpsp-xc-type="libxc-interface" />
<libxc-info number-of-functionals="2">
<functional name="Perdew, Burke &amp; Ernzerhof SOL (GGA)" type="exchange"
 id="116" />
<functional name="Perdew, Burke &amp; Ernzerhof SOL (GGA)" type="correlation"
 id="133" />
</libxc-info>
</exchange-correlation>
<valence-configuration total-valence-charge="6">
<shell n="3" l="s" occupation="2" />
<shell n="3" l="p" occupation="4" />
</valence-configuration>
</pseudo-atom-spec>
<grid npts="457">
<annotation type="sampled from oncvpsp log grid"
 recipe="r(i:1..N) = r1*exp(a*(i-1)) + r=0; resampled"
 recipe-cont="r1: scale; a: step" scale="0.312500000000E-04"
 step="0.119285708653E-01" delta="0.500000000000E-02" rmax="44.0674949757" />
<grid-data>
  0.000000000000E+00  5.032089401363E-03  1.005120367503E-02  1.507840828192E-02
  2.031740843734E-02  2.548578698111E-02  3.084510470868E-02  3.601910451176E-02
  4.106941804742E-02  4.627257563705E-02  5.151672975532E-02  5.667511193686E-02
  6.235000413091E-02  6.777976739691E-02  7.280867859944E-02  7.821070922764E-02
  8.401354282973E-02  8.917679538664E-02  9.465736793826E-02  1.004747621413E-01
  1.066496781734E-01  1.118617474217E-01  1.173285353557E-01  1.230624903151E-01
  1.290766690016E-01  1.353847662102E-01  1.420011460131E-01  1.471747771426E-01
  1.525369029415E-01  1.580943909733E-01  1.638543590123E-01  1.698241841602E-01
  1.760115122937E-01  1.824242678575E-01  1.890706640132E-01  1.959592131586E-01
  2.030987378299E-01  2.104983820012E-01  2.155806549362E-01  2.207856342690E-01
  2.261162826228E-01  2.315756341504E-01  2.371667962613E-01  2.428929513903E-01
  2.487573588086E-01  2.547633564797E-01  2.609143629586E-01  2.672138793378E-01
  2.736654912406E-01  2.802728708611E-01  2.870397790552E-01  2.939700674807E-01
  3.010676807899E-01  3.083366588749E-01  3.157811391668E-01  3.234053589908E-01
  3.312136579783E-01  3.392104805365E-01  3.474003783786E-01  3.557880131142E-01
  3.643781589028E-01  3.731757051713E-01  3.821856593970E-01  3.914131499575E-01
  4.008634290501E-01  4.105418756810E-01  4.204539987275E-01  4.254994467122E-01
  4.306054400728E-01  4.357727053536E-01  4.410019778179E-01  4.462940015517E-01
  4.516495295703E-01  4.570693239252E-01  4.625541558123E-01  4.681048056820E-01
  4.737220633502E-01  4.794067281104E-01  4.851596088477E-01  4.909815241539E-01
  4.968733024437E-01  5.028357820731E-01  5.088698114579E-01  5.149762491954E-01
  5.211559641858E-01  5.274098357560E-01  5.337387537851E-01  5.401436188305E-01
  5.466253422565E-01  5.531848463636E-01  5.598230645199E-01  5.665409412942E-01
  5.733394325897E-01  5.802195057808E-01  5.871821398501E-01  5.942283255283E-01
  6.013590654347E-01  6.085753742199E-01  6.158782787105E-01  6.232688180550E-01
  6.307480438717E-01  6.383170203982E-01  6.459768246429E-01  6.537285465387E-01
  6.615732890971E-01  6.695121685663E-01  6.775463145891E-01  6.856768703642E-01
  6.939049928085E-01  7.022318527222E-01  7.106586349549E-01  7.191865385744E-01
  7.278167770372E-01  7.365505783617E-01  7.453891853020E-01  7.543338555257E-01
  7.633858617920E-01  7.725464921335E-01  7.818170500391E-01  7.911988546395E-01
  8.006932408952E-01  8.103015597860E-01  8.200251785034E-01  8.298654806454E-01
  8.398238664132E-01  8.499017528101E-01  8.601005738439E-01  8.704217807300E-01
  8.808668420987E-01  8.914372442039E-01  9.021344911344E-01  9.129601050280E-01
  9.239156262883E-01  9.350026138038E-01  9.462226451694E-01  9.575773169115E-01
  9.690682447144E-01  9.806970636510E-01  9.924654284148E-01  1.004375013556E+00
  1.016427513718E+00  1.028624643883E+00  1.040968139610E+00  1.053459757285E+00
  1.066101274372E+00  1.078894489665E+00  1.091841223541E+00  1.104943318223E+00
  1.118202638042E+00  1.131621069699E+00  1.145200522535E+00  1.158942928805E+00
  1.172850243951E+00  1.186924446878E+00  1.201167540241E+00  1.215581550724E+00
  1.230168529332E+00  1.244930551684E+00  1.259869718305E+00  1.274988154924E+00
  1.290288012783E+00  1.305771468937E+00  1.321440726564E+00  1.337298015283E+00
  1.353345591466E+00  1.369585738564E+00  1.386020767427E+00  1.402653016636E+00
  1.419484852835E+00  1.436518671069E+00  1.453756895122E+00  1.471201977864E+00
  1.488856401598E+00  1.506722678417E+00  1.524803350558E+00  1.543100990765E+00
  1.561618202654E+00  1.580357621086E+00  1.599321912539E+00  1.618513775489E+00
  1.637935940795E+00  1.657591172085E+00  1.677482266150E+00  1.697612053344E+00
  1.717983397984E+00  1.738599198760E+00  1.759462389145E+00  1.780575937814E+00
  1.801942849068E+00  1.823566163257E+00  1.845448957216E+00  1.867594344703E+00
  1.890005476839E+00  1.912685542561E+00  1.935637769072E+00  1.958865422301E+00
  1.982371807368E+00  2.006160269057E+00  2.030234192286E+00  2.054597002593E+00
  2.079252166624E+00  2.104203192624E+00  2.129453630935E+00  2.155007074506E+00
  2.180867159400E+00  2.207037565313E+00  2.233522016097E+00  2.260324280290E+00
  2.287448171654E+00  2.314897549713E+00  2.342676320310E+00  2.370788436154E+00
  2.399237897388E+00  2.428028752156E+00  2.457165097182E+00  2.486651078348E+00
  2.516490891288E+00  2.546688781984E+00  2.577249047368E+00  2.608176035936E+00
  2.639474148367E+00  2.671147838148E+00  2.703201612206E+00  2.735640031552E+00
  2.768467711931E+00  2.801689324474E+00  2.835309596367E+00  2.869333311524E+00
  2.903765311262E+00  2.938610494997E+00  2.973873820937E+00  3.009560306789E+00
  3.045675030470E+00  3.082223130836E+00  3.119209808406E+00  3.156640326107E+00
  3.194520010020E+00  3.232854250140E+00  3.271648501142E+00  3.310908283155E+00
  3.350639182553E+00  3.390846852744E+00  3.431537014977E+00  3.472715459157E+00
  3.514388044666E+00  3.556560701202E+00  3.599239429617E+00  3.642430302772E+00
  3.686139466406E+00  3.730373140002E+00  3.775137617682E+00  3.820439269095E+00
  3.866284540324E+00  3.912679954808E+00  3.959632114265E+00  4.007147699637E+00
  4.055233472032E+00  4.103896273697E+00  4.153143028981E+00  4.202980745329E+00
  4.253416514273E+00  4.304457512444E+00  4.356111002593E+00  4.408384334624E+00
  4.461284946640E+00  4.514820366000E+00  4.568998210392E+00  4.623826188916E+00
  4.679312103183E+00  4.735463848421E+00  4.792289414603E+00  4.849796887578E+00
  4.907994450229E+00  4.966890383631E+00  5.026493068235E+00  5.086810985054E+00
  5.147852716874E+00  5.209626949477E+00  5.272142472871E+00  5.335408182545E+00
  5.399433080736E+00  5.464226277704E+00  5.529796993037E+00  5.596154556953E+00
  5.663308411637E+00  5.731268112576E+00  5.800043329927E+00  5.869643849887E+00
  5.940079576085E+00  6.011360530998E+00  6.083496857370E+00  6.156498819659E+00
  6.230376805494E+00  6.305141327160E+00  6.380803023086E+00  6.457372659363E+00
  6.534861131276E+00  6.613279464851E+00  6.692638818429E+00  6.772950484250E+00
  6.854225890061E+00  6.936476600742E+00  7.019714319951E+00  7.103950891790E+00
  7.189198302492E+00  7.275468682122E+00  7.362774306307E+00  7.451127597983E+00
  7.540541129159E+00  7.631027622709E+00  7.722599954181E+00  7.815271153631E+00
  7.909054407475E+00  8.003963060365E+00  8.100010617089E+00  8.197210744494E+00
  8.295577273428E+00  8.395124200709E+00  8.495865691118E+00  8.597816079411E+00
  8.700989872364E+00  8.805401750832E+00  8.911066571842E+00  9.017999370705E+00
  9.126215363153E+00  9.235729947511E+00  9.346558706881E+00  9.458717411364E+00
  9.572222020300E+00  9.687088684543E+00  9.803333748758E+00  9.920973753743E+00
  1.004002543879E+01  1.016050574405E+01  1.028243181298E+01  1.040582099474E+01
  1.053069084667E+01  1.065705913683E+01  1.078494384648E+01  1.091436317263E+01
  1.104533553071E+01  1.117787955707E+01  1.131201411176E+01  1.144775828110E+01
  1.158513138047E+01  1.172415295704E+01  1.186484279252E+01  1.200722090603E+01
  1.215130755691E+01  1.229712324759E+01  1.244468872656E+01  1.259402499128E+01
  1.274515329117E+01  1.289809513067E+01  1.305287227224E+01  1.320950673950E+01
  1.336802082038E+01  1.352843707022E+01  1.369077831507E+01  1.385506765485E+01
  1.402132846670E+01  1.418958440830E+01  1.435985942120E+01  1.453217773426E+01
  1.470656386707E+01  1.488304263347E+01  1.506163914508E+01  1.524237881482E+01
  1.542528736059E+01  1.561039080892E+01  1.579771549863E+01  1.598728808461E+01
  1.617913554163E+01  1.637328516813E+01  1.656976459015E+01  1.676860176523E+01
  1.696982498641E+01  1.717346288625E+01  1.737954444088E+01  1.758809897417E+01
  1.779915616186E+01  1.801274603580E+01  1.822889898823E+01  1.844764577609E+01
  1.866901752541E+01  1.889304573571E+01  1.911976228454E+01  1.934919943195E+01
  1.958138982514E+01  1.981636650304E+01  2.005416290108E+01  2.029481285589E+01
  2.053835061016E+01  2.078481081748E+01  2.103422854729E+01  2.128663928986E+01
  2.154207896134E+01  2.180058390887E+01  2.206219091578E+01  2.232693720677E+01
  2.259486045325E+01  2.286599877869E+01  2.314039076403E+01  2.341807545320E+01
  2.369909235864E+01  2.398348146694E+01  2.427128324455E+01  2.456253864348E+01
  2.485728910720E+01  2.515557657649E+01  2.545744349541E+01  2.576293281735E+01
  2.607208801116E+01  2.638495306729E+01  2.670157250410E+01  2.702199137415E+01
  2.734625527064E+01  2.767441033389E+01  2.800650325790E+01  2.834258129699E+01
  2.868269227255E+01  2.902688457982E+01  2.937520719478E+01  2.972770968112E+01
  3.008444219729E+01  3.044545550366E+01  3.081080096970E+01  3.118053058134E+01
  3.155469694832E+01  3.193335331170E+01  3.231655355144E+01  3.270435219405E+01
  3.309680442038E+01  3.349396607343E+01  3.389589366631E+01  3.430264439030E+01
  3.471427612299E+01  3.513084743646E+01  3.555241760570E+01  3.597904661697E+01
  3.641079517637E+01  3.684772471849E+01  3.728989741511E+01  3.773737618409E+01
  3.819022469830E+01  3.864850739468E+01  3.911228948342E+01  3.958163695722E+01
  4.005661660071E+01  4.053729599991E+01  4.102374355191E+01  4.151602847454E+01
  4.201422081623E+01  4.251839146603E+01  4.302861216362E+01  4.354495550958E+01
  4.406749497570E+01
</grid-data>
</grid>
<valence-charge total-charge="6" is-unscreening-charge="yes"
 rescaled-to-z-pseudo="no">
<radfunc>
<data npts="457">
  1.420366707093E-02  1.426478798089E-02  1.444754780461E-02  1.475261723012E-02
  1.520062475617E-02  1.577289811103E-02  1.650328217929E-02  1.734105279344E-02
  1.828484556523E-02  1.938787880287E-02  2.063431527573E-02  2.199287169435E-02
  2.364000609251E-02  2.536640036368E-02  2.709728903885E-02  2.909880195141E-02
  3.141396298589E-02  3.361874981511E-02  3.610929840077E-02  3.892348745273E-02
  4.210442104817E-02  4.494599307851E-02  4.808183228431E-02  5.154334517495E-02
  5.536545637778E-02  5.958702808197E-02  6.425133195010E-02  6.806890311160E-02
  7.218486996738E-02  7.662349197422E-02  8.141110520910E-02  8.657630752817E-02
  9.215015961694E-02  9.816640285313E-02  1.046616948044E-01  1.116758630250E-01
  1.192521775815E-01  1.274376424052E-01  1.332580682960E-01  1.393880160971E-01
  1.458445843498E-01  1.526458257476E-01  1.598107943234E-01  1.673595934320E-01
  1.753134242145E-01  1.836946341519E-01  1.925267652320E-01  2.018346011558E-01
  2.116442128938E-01  2.219830017760E-01  2.328797391545E-01  2.443646015123E-01
  2.564691997087E-01  2.692266008489E-01  2.826713410372E-01  2.968394270271E-01
  3.117683245092E-01  3.274969304858E-01  3.440655268696E-01  3.615157121100E-01
  3.798903073069E-01  3.992332329169E-01  4.195893517979E-01  4.410042739882E-01
  4.635241182839E-01  4.871952253731E-01  5.120638170385E-01  5.249614841585E-01
  5.381755957489E-01  5.517117070735E-01  5.655752788697E-01  5.797716588132E-01
  5.943060617421E-01  6.091835485979E-01  6.244090040467E-01  6.399871127429E-01
  6.559223342051E-01  6.722188762720E-01  6.888806671157E-01  7.059113257897E-01
  7.233141312971E-01  7.410919901696E-01  7.592474025524E-01  7.777824268011E-01
  7.966986425995E-01  8.159971126198E-01  8.356783427530E-01  8.557422409484E-01
  8.761880747101E-01  8.970144273109E-01  9.182191527938E-01  9.397993298450E-01
  9.617512146342E-01  9.840701927308E-01  1.006750730219E+00  1.029786324153E+00
  1.053169452491E+00  1.076891523702E+00  1.100942826189E+00  1.125312477773E+00
  1.149988375409E+00  1.174957145407E+00  1.200204094369E+00  1.225713161148E+00
  1.251466870084E+00  1.277446285843E+00  1.303630970172E+00  1.329998940936E+00
  1.356526633774E+00  1.383188866807E+00  1.409958808776E+00  1.436807951084E+00
  1.463706084192E+00  1.490621278875E+00  1.517519872873E+00  1.544366463489E+00
  1.571123906734E+00  1.597753323643E+00  1.624214114426E+00  1.650463981139E+00
  1.676458959613E+00  1.702153461368E+00  1.727500326309E+00  1.752450886968E+00
  1.776955045092E+00  1.800961361365E+00  1.824417159013E+00  1.847268642025E+00
  1.869461028633E+00  1.890938700644E+00  1.911645369069E+00  1.931524256360E+00
  1.950518295421E+00  1.968570345292E+00  1.985623423233E+00  2.001620952600E+00
  2.016507025652E+00  2.030226680068E+00  2.042726187640E+00  2.053953353223E+00
  2.063857821700E+00  2.072391390367E+00  2.079508323823E+00  2.085165668205E+00
  2.089323561369E+00  2.091945535486E+00  2.092998808479E+00  2.092454560753E+00
  2.090288193850E+00  2.086479567909E+00  2.081013215219E+00  2.073878527645E+00
  2.065069916313E+00  2.054586942609E+00  2.042434420294E+00  2.028622489282E+00
  2.013166662339E+00  1.996087846641E+00  1.977412342617E+00  1.957171822888E+00
  1.935403294218E+00  1.912149045270E+00  1.887456582532E+00  1.861378556089E+00
  1.833972675932E+00  1.805301618318E+00  1.775432920363E+00  1.744438859726E+00
  1.712396314982E+00  1.679386601331E+00  1.645495275708E+00  1.610811570305E+00
  1.575426390661E+00  1.539429523168E+00  1.502908944175E+00  1.465951054943E+00
  1.428640239765E+00  1.391058697445E+00  1.353286247448E+00  1.315400156565E+00
  1.277474982392E+00  1.239582433781E+00  1.201791248320E+00  1.164167086838E+00
  1.126772444764E+00  1.089666580129E+00  1.052905457872E+00  1.016541710042E+00
  9.806246113933E-01  9.452000698160E-01  9.103106309619E-01  8.759954963805E-01
  8.422905544250E-01  8.092284231497E-01  7.768385043848E-01  7.451470481517E-01
  7.141772265628E-01  6.839492163395E-01  6.544802890788E-01  6.257849084000E-01
  5.978748331147E-01  5.707592255743E-01  5.444447643706E-01  5.189357606014E-01
  4.942342768605E-01  4.703402483434E-01  4.472516052289E-01  4.249643957306E-01
  4.034729091734E-01  3.827697985048E-01  3.628462016906E-01  3.436918614882E-01
  3.252952431341E-01  3.076436495242E-01  2.907233335090E-01  2.745196069686E-01
  2.590169463713E-01  2.441990945633E-01  2.300491585770E-01  2.165497032648E-01
  2.036828406512E-01  1.914303148593E-01  1.797735825593E-01  1.686938888890E-01
  1.581723388345E-01  1.481899640822E-01  1.387277853796E-01  1.297668704676E-01
  1.212883876615E-01  1.132736551843E-01  1.057041863656E-01  9.856173083856E-02
  9.182831187508E-02  8.548626001329E-02  7.951824313560E-02  7.390729316288E-02
  6.863682953279E-02  6.369067963152E-02  5.905309634787E-02  5.470877291559E-02
  5.064285520667E-02  4.684095163252E-02  4.328914080460E-02  3.997397709862E-02
  3.688249426009E-02  3.400220718159E-02  3.132111197528E-02  2.882768445814E-02
  2.651087716122E-02  2.436011496972E-02  2.236528949613E-02  2.051675228542E-02
  1.880530694871E-02  1.722220031966E-02  1.575911272626E-02  1.440814746974E-02
  1.316181960079E-02  1.201304408282E-02  1.095512343017E-02  9.981734908122E-03
  9.086917379565E-03  8.265057880713E-03  7.510878005749E-03  6.819420176702E-03
  6.186033871256E-03  5.606361876873E-03  5.076326635042E-03  4.592116734466E-03
  4.150173606872E-03  3.747178473679E-03  3.380039586390E-03  3.045879798016E-03
  2.742024497495E-03  2.465989933744E-03  2.215471950884E-03  1.988335151314E-03
  1.782602498711E-03  1.596445368765E-03  1.428174051486E-03  1.276228705379E-03
  1.139170760526E-03  1.015674764805E-03  9.045206649958E-04  8.045865124263E-04
  7.148415810872E-04  6.343398847220E-04  5.622140783331E-04  4.976697287531E-04
  4.399799384109E-04  3.884803061458E-04  3.425642088484E-04  3.016783878181E-04
  2.653188239812E-04  2.330268864900E-04  2.043857396905E-04  1.790169939868E-04
  1.565775867072E-04  1.367568796927E-04  1.192739609469E-04  1.038751383074E-04
  9.033161370653E-05  7.843732717862E-05  6.800696033616E-05  5.887408957361E-05
  5.088947976670E-05  4.391950971429E-05  3.784472102044E-05  3.255848253930E-05
  2.796576290452E-05  2.398200404250E-05  2.053208892597E-05  1.754939716389E-05
  1.497494234738E-05  1.275658538196E-05  1.084831833415E-05  9.209613608250E-06
  7.804833546824E-06  6.602695817794E-06  5.575790211866E-06  4.700142727371E-06
  3.954823065217E-06  3.321591894815E-06  2.784584482422E-06  2.330027496228E-06
  1.945986017539E-06  1.622137994325E-06  1.349573572063E-06  1.120616926921E-06
  9.286684078576E-07  7.680649668913E-07  6.339570205990E-07  5.222000408363E-07
  4.292593186393E-07  3.521264824394E-07  2.882464801499E-07  2.354538545582E-07
  1.919172529745E-07  1.560912154998E-07  1.266743818615E-07  1.025733448280E-07
  8.287145909734E-08  6.680198859885E-08  5.372504272235E-08  4.310781346799E-08
  3.450768126332E-08  2.755780760401E-08  2.195487810984E-08  1.744870041349E-08
  1.383339787258E-08  1.093997275816E-08  8.630041654284E-09  6.790571618701E-09
  5.329468500186E-09  4.171888965097E-09  3.257165516368E-09  2.536249337406E-09
  1.969589388351E-09  1.525378032340E-09  1.178103767390E-09  9.073605613326E-10
  6.968709931019E-10  5.336870390116E-10  4.075380384694E-10  3.103002478787E-10
  2.355665497181E-10  1.782984201176E-10  1.345452562160E-10  1.012186981170E-10
  7.591171449504E-11  5.675401301265E-11  4.229683668588E-11  3.142145871669E-11
  2.326672888258E-11  1.717188699013E-11  1.263157128645E-11  9.260536203326E-12
  6.766075002752E-12  4.926536352107E-12  3.574644469624E-12  2.584592825182E-12
  1.862092043812E-12  1.336722516506E-12  9.560786882845E-13  6.813012349826E-13
  4.836804692840E-13  3.420835526443E-13  2.410129022295E-13  1.691464121135E-13
  1.182440733277E-13  8.233216076736E-14  5.709687982758E-14  3.943545954870E-14
  2.712512706353E-14  1.857998749043E-14  1.267319055178E-14  8.607385506077E-15
  5.820750824245E-15  3.919101349708E-15  2.627064655662E-15  1.753107571181E-15
  1.164598861352E-15  7.701056119341E-16  5.068811604975E-16  3.320621564387E-16
  2.165035478164E-16  1.404810026441E-16  9.070914810194E-17  5.828256926353E-17
  3.726084326452E-17  2.370083009782E-17  0.000000000000E+00  0.000000000000E+00
  0.000000000000E+00  0.000000000000E+00  0.000000000000E+00  0.000000000000E+00
  0.000000000000E+00  0.000000000000E+00  0.000000000000E+00  0.000000000000E+00
  0.000000000000E+00  0.000000000000E+00  0.000000000000E+00  0.000000000000E+00
  0.000000000000E+00  0.000000000000E+00  0.000000000000E+00  0.000000000000E+00
  0.000000000000E+00  0.000000000000E+00  0.000000000000E+00  0.000000000000E+00
  0.000000000000E+00  0.000000000000E+00  0.000000000000E+00  0.000000000000E+00
  0.000000000000E+00  0.000000000000E+00  0.000000000000E+00  0.000000000000E+00
  0.000000000000E+00  0.000000000000E+00  0.000000000000E+00  0.000000000000E+00
  0.000000000000E+00  0.000000000000E+00  0.000000000000E+00  0.000000000000E+00
  0.000000000000E+00  0.000000000000E+00  0.000000000000E+00  0.000000000000E+00
  0.000000000000E+00  0.000000000000E+00  0.000000000000E+00  0.000000000000E+00
  0.000000000000E+00
</data>
</radfunc>
</valence-charge>
<pseudocore-charge matching-radius="0.912960105028"
 number-of-continuous-derivatives="4">
<annotation model-charge-form="Teter function with specified parameters" />
<radfunc>
<data npts="290">
  1.274000409101E+01  1.273922148220E+01  1.273688199082E+01  1.273297888012E+01
  1.272725164427E+01  1.271994384625E+01  1.271063004775E+01  1.269996479412E+01
  1.268797266383E+01  1.267398767871E+01  1.265822386050E+01  1.264108925381E+01
  1.262038052026E+01  1.259875170549E+01  1.257714438272E+01  1.255225493122E+01
  1.252359244224E+01  1.249642188159E+01  1.246587516549E+01  1.243154219956E+01
  1.239296560838E+01  1.235870847130E+01  1.232112359010E+01  1.227989896447E+01
  1.223469570405E+01  1.218514621528E+01  1.213085237992E+01  1.208676085372E+01
  1.203956512146E+01  1.198905992886E+01  1.193502849369E+01  1.187724218352E+01
  1.181546024318E+01  1.174942958495E+01  1.167888465668E+01  1.160354740493E+01
  1.152312735299E+01  1.143732181600E+01  1.137697134328E+01  1.131399176871E+01
  1.124828496127E+01  1.117975077918E+01  1.110828721320E+01  1.103379055582E+01
  1.095615559865E+01  1.087527586065E+01  1.079104384974E+01  1.070335136073E+01
  1.061208981230E+01  1.051715062619E+01  1.041842565152E+01  1.031580763744E+01
  1.020919075737E+01  1.009847118777E+01  9.983547744722E+00  9.864322581287E+00
  9.740701948464E+00  9.612597022430E+00  9.479924800369E+00  9.342609066856E+00
  9.200581432224E+00  9.053782443785E+00  8.902162769993E+00  8.745684456761E+00
  8.584322254144E+00  8.418065010307E+00  8.246917128372E+00  8.159515198858E+00
  8.070900080071E+00  7.981077379343E+00  7.890053968343E+00  7.797838033872E+00
  7.704439128958E+00  7.609868224169E+00  7.514137758979E+00  7.417261693063E+00
  7.319255557371E+00  7.220136504805E+00  7.119923360323E+00  7.018636670299E+00
  6.916298750903E+00  6.812933735314E+00  6.708567619522E+00  6.603228306482E+00
  6.496945648352E+00  6.389751486559E+00  6.281679689397E+00  6.172766186861E+00
  6.063049002410E+00  5.952568281320E+00  5.841366315312E+00  5.729487563078E+00
  5.616978666364E+00  5.503888461226E+00  5.390267984089E+00  5.276170472201E+00
  5.161651358103E+00  5.046768257705E+00  4.931580951560E+00  4.816151358935E+00
  4.700543504266E+00  4.584823475600E+00  4.469059374623E+00  4.353321257891E+00
  4.237681068880E+00  4.122212560509E+00  4.006991207782E+00  3.892094110245E+00
  3.777599883969E+00  3.663588542794E+00  3.550141368636E+00  3.437340770668E+00
  3.325270133257E+00  3.214013652589E+00  3.103656161958E+00  2.994282945785E+00
  2.885979542484E+00  2.778831536382E+00  2.672924338960E+00  2.568342959819E+00
  2.465171767793E+00  2.363494242822E+00  2.263392719207E+00  2.164948121065E+00
  2.068239690844E+00  1.973344711918E+00  1.880338226382E+00  1.789292749294E+00
  1.700277980717E+00  1.613360517052E+00  1.528603563266E+00  1.446066647720E+00
  1.365805341421E+00  1.287870983639E+00  1.212310415890E+00  1.139165726400E+00
  1.068474007224E+00  1.000267126247E+00  9.345715163457E-01  8.714079839898E-01
  8.107915395886E-01  7.527312518396E-01  6.972301282996E-01  6.442850243190E-01
  5.938865823732E-01  5.460192036860E-01  5.006610538747E-01  4.577841041374E-01
  4.173542092733E-01  3.793312235497E-01  3.436691551289E-01  3.103163594312E-01
  2.792157714394E-01  2.503051765578E-01  2.235175192143E-01  1.987812479510E-01
  1.760206952895E-01  1.551564901848E-01  1.361060004056E-01  1.187838017032E-01
  1.031021701699E-01  8.897159373863E-02  7.630129835994E-02  6.499978401190E-02
  5.497536536341E-02  4.613671163642E-02  3.839338000157E-02  3.165633670822E-02
  2.583846010011E-02  2.085501971093E-02  1.662412577531E-02  1.306714373559E-02
  1.010906867609E-02  7.678855074486E-03  5.709697823302E-03  4.139261138616E-03
  2.909852730243E-03  1.968541447783E-03  1.267217526412E-03  7.625955186310E-04
  4.161609941576E-04  1.940630978910E-04  6.695605141419E-05  9.793641293498E-06
  1.581630979603E-06  2.509383573903E-05  6.655828582300E-05  1.153204477342E-04
  1.634908554085E-04  2.055847045179E-04  2.381609707747E-04  2.594684195498E-04
  2.691054782224E-04  2.677003504052E-04  2.566169758896E-04  2.376915026925E-04
  2.130028660639E-04  1.846798984763E-04  1.547461648705E-04  1.250024734712E-04
  9.694580158025E-05  7.172224573792E-05  5.011060266555E-05  3.253235355575E-05
  1.908319522408E-05  9.580864366957E-06  3.623852055338E-06  6.557088701897E-07
  2.998795434579E-08  1.071441676409E-06  3.129842918770E-06  5.623698413024E-06
  8.072104435407E-06  1.011400420796E-05  1.151507920064E-05  1.216338301031E-05
  1.205555282966E-05  1.127596642223E-05  9.971522722569E-06  8.324799086494E-06
  6.528183355829E-06  4.761217956005E-06  3.172866503244E-06  1.869774662369E-06
  9.109090795679E-07  3.082873585340E-07  3.292172601346E-08  2.464371806346E-08
  2.041967802055E-07  4.858990479837E-07  7.892892888518E-07  1.048452975937E-06
  1.218141350360E-06  1.276288081199E-06  1.223031702553E-06  1.076803228805E-06
  8.683811576475E-07  6.340099596269E-07  4.087037857331E-07  2.207191752244E-07
  8.790717926156E-08  1.629416117417E-08  0.000000000000E+00  0.000000000000E+00
  0.000000000000E+00  0.000000000000E+00  0.000000000000E+00  0.000000000000E+00
  0.000000000000E+00  0.000000000000E+00  0.000000000000E+00  0.000000000000E+00
  0.000000000000E+00  0.000000000000E+00  0.000000000000E+00  0.000000000000E+00
  0.000000000000E+00  0.000000000000E+00  0.000000000000E+00  0.000000000000E+00
  0.000000000000E+00  0.000000000000E+00  0.000000000000E+00  0.000000000000E+00
  0.000000000000E+00  0.000000000000E+00  0.000000000000E+00  0.000000000000E+00
  0.000000000000E+00  0.000000000000E+00  0.000000000000E+00  0.000000000000E+00
  0.000000000000E+00  0.000000000000E+00  0.000000000000E+00  0.000000000000E+00
  0.000000000000E+00  0.000000000000E+00  0.000000000000E+00  0.000000000000E+00
  0.000000000000E+00  0.000000000000E+00  0.000000000000E+00  0.000000000000E+00
  0.000000000000E+00  0.000000000000E+00  0.000000000000E+00  0.000000000000E+00
  0.000000000000E+00  0.000000000000E+00
</data>
</radfunc>
</pseudocore-charge>
<semilocal-potentials set="scalar_relativistic">
<slps n="3" l="s" rc="1.45375689512" eref="-0.631879005390">
<radfunc>
<data npts="290">
  5.123751688679E+01  5.120724394747E+01  5.111691547342E+01  5.096677405821E+01
  5.074772003872E+01  5.047036120019E+01  5.012031285558E+01  4.972413990325E+01
  4.928452231534E+01  4.877949957626E+01  4.821988360165E+01  4.762289331542E+01
  4.691660617961E+01  4.619615765226E+01  4.549338626107E+01  4.470411435835E+01
  4.382099526615E+01  4.300827914684E+01  4.212172711301E+01  4.115801063437E+01
  4.011439718949E+01  3.922063035186E+01  3.827387704768E+01  3.727400716594E+01
  3.622139419768E+01  3.511696705429E+01  3.396225453824E+01  3.306449704832E+01
  3.214081139505E+01  3.119256152962E+01  3.022132016399E+01  2.922886441284E+01
  2.821716796573E+01  2.718838969546E+01  2.614485870154E+01  2.508905588874E+01
  2.402359228541E+01  2.295118441136E+01  2.223376571480E+01  2.151534328691E+01
  2.079676430601E+01  2.007887753834E+01  1.936252916930E+01  1.864855862146E+01
  1.793779440050E+01  1.723105001022E+01  1.652911997782E+01  1.583277602950E+01
  1.514276345570E+01  1.445979770299E+01  1.378456122831E+01  1.311770064823E+01
  1.245982421396E+01  1.181149963948E+01  1.117325230777E+01  1.054556387665E+01
  9.928871302862E+00  9.323566299861E+00  8.729995241278E+00  8.148459518864E+00
  7.579216359938E+00  7.022480105596E+00  6.478423946668E+00  5.947182109726E+00
  5.428852480063E+00  4.923499642533E+00  4.431158314056E+00  4.189870573776E+00
  3.951837133650E+00  3.717055672396E+00  3.485522766626E+00  3.257234032395E+00
  3.032184269252E+00  2.810367606170E+00  2.591777648661E+00  2.376407626337E+00
  2.164250540121E+00  1.955299308257E+00  1.749546910205E+00  1.546986527461E+00
  1.347611680278E+00  1.151416359213E+00  9.583951503971E-01  7.685433533295E-01
  5.818570900217E-01  3.983334042322E-01  2.179703495357E-01  4.076706493969E-02
 -1.332761632307E-01 -3.041578544611E-01 -4.718753034419E-01 -6.364245669467E-01
 -7.978004693612E-01 -9.559966279182E-01 -1.111005498646E+00 -1.262818443893E+00
 -1.411425822106E+00 -1.556817100412E+00 -1.698980990339E+00 -1.837905606732E+00
 -1.973578649711E+00 -2.105987609170E+00 -2.235119991011E+00 -2.360963563920E+00
 -2.483506625116E+00 -2.602738283078E+00 -2.718648754774E+00 -2.831229674490E+00
 -2.940474410833E+00 -3.046378387992E+00 -3.148939406835E+00 -3.248157960914E+00
 -3.344037541986E+00 -3.436584929159E+00 -3.525810455395E+00 -3.611728244697E+00
 -3.694356413036E+00 -3.773717225818E+00 -3.849837204628E+00 -3.922747175922E+00
 -3.992482254522E+00 -4.059081755031E+00 -4.122589024754E+00 -4.183051192371E+00
 -4.240518827462E+00 -4.295045507129E+00 -4.346687287323E+00 -4.395502078166E+00
 -4.441548924577E+00 -4.484887195883E+00 -4.525575690828E+00 -4.563671667576E+00
 -4.599229811877E+00 -4.632301160509E+00 -4.662932001437E+00 -4.691162776725E+00
 -4.717027018894E+00 -4.740550356062E+00 -4.761749625517E+00 -4.780632139000E+00
 -4.797195145698E+00 -4.811425540254E+00 -4.823299862702E+00 -4.832784634739E+00
 -4.839837071846E+00 -4.844406203281E+00 -4.846434421699E+00 -4.845859471125E+00
 -4.842616866339E+00 -4.836642718529E+00 -4.827876921819E+00 -4.816266633265E+00
 -4.801769955804E+00 -4.784359710059E+00 -4.764027157755E+00 -4.740785517683E+00
 -4.714673095939E+00 -4.685755836837E+00 -4.654129091101E+00 -4.619918395257E+00