<?xml version="1.0" encoding="UTF-8" ?>
<psml version="1.1" energy_unit="hartree" length_unit="bohr"
 uuid="fd554550-1d60-11e8-6a50-9945ffb6a120"
 xmlns="http://esl.cecam.org/PSML/ns/1.1">
<provenance creator="ONCVPSP-3.3.0+psml-3.3.0-73 (scalar-relativistic)"
 date="2018-03-01">
<annotation action="semilocal-pseudopotential-generation"
 action-cont="projectors-generation" />
<input-file name="oncvpsp-input">
<![CDATA[# atsym z nc nv iexc psfile
Bi 83 12 3 -116133 upf
# n l f
1 0 2.0
2 0 2.0
2 1 6.0
3 0 2.0
3 1 6.0
3 2 10.0
4 0 2.0
4 1 6.0
4 2 10.0
5 0 2.0
5 1 6.0
4 3 14.0
5 2 10.0
6 0 2.0
6 1 3.0
# lmax
2
# l rc ep ncon nbas qcut
0 2.4 0.0 4 7 3.6
1 2.5 0.0 4 7 4.5
2 2.1 0.0 4 7 8.7
# lloc lpopt rc5 dvloc0
4 5 2.0 0.0
# l nproj debl
0 2 2.5
1 2 2.5
2 2 1.2
# icmod fcfact rcfact
3 6.0 1.34
# epsh1 epsh2 depsh
-12.0 12.0 0.02
# rlmax drl
6.0 0.01
 0
]]>
</input-file>
</provenance>
<pseudo-atom-spec atomic-label="Bi" atomic-number="83" z-pseudo="15"
 flavor="Hamann&apos;s oncvpsp" relativity="scalar" spin-dft="no"
 core-corrections="yes">
<annotation pseudo-energy="-71.2070714260" />
<exchange-correlation>
<annotation oncvpsp-xc-code="-116133" oncvpsp-xc-type="libxc-interface" />
<libxc-info number-of-functionals="2">
<functional name="Perdew, Burke &amp; Ernzerhof SOL (GGA)" type="exchange"
 id="116" />
<functional name="Perdew, Burke &amp; Ernzerhof SOL (GGA)" type="correlation"
 id="133" />
</libxc-info>
</exchange-correlation>
<valence-configuration total-valence-charge="15">
<shell n="5" l="d" occupation="10" />
<shell n="6" l="s" occupation="2" />
<shell n="6" l="p" occupation="3" />
</valence-configuration>
</pseudo-atom-spec>
<grid npts="457">
<annotation type="sampled from oncvpsp log grid"
 recipe="r(i:1..N) = r1*exp(a*(i-1)) + r=0; resampled"
 recipe-cont="r1: scale; a: step" scale="0.602409638554E-05"
 step="0.119285708653E-01" delta="0.500000000000E-02" rmax="44.0626872033" />
<grid-data>
  0.000000000000E+00  5.031540399417E-03  1.005010708672E-02  1.507676322460E-02
  2.031519180407E-02  2.548300647672E-02  3.084173950167E-02  3.601517482036E-02
  4.106493736582E-02  4.626752728992E-02  5.151110926994E-02  5.666892867097E-02
  6.234320173317E-02  6.777237261092E-02  7.280073515825E-02  7.820217642384E-02
  8.400437693564E-02  8.916706618068E-02  9.464704080075E-02  1.004638003250E-01
  1.066380426725E-01  1.118495432830E-01  1.173157347894E-01  1.230490641731E-01
  1.290625867116E-01  1.353699957055E-01  1.419856536601E-01  1.471587203454E-01
  1.525202611353E-01  1.580771428440E-01  1.638364824694E-01  1.698056563082E-01
  1.759923094030E-01  1.824043653339E-01  1.890500363665E-01  1.959378339698E-01
  2.030765797176E-01  2.104754165862E-01  2.155571350442E-01  2.207615465127E-01
  2.260916132918E-01  2.315503692031E-01  2.371409213171E-01  2.428664517214E-01
  2.487302193317E-01  2.547355617473E-01  2.608858971501E-01  2.671847262509E-01
  2.736356342815E-01  2.802422930356E-01  2.870084629587E-01  2.939379952883E-01
  3.010348342466E-01  3.083030192846E-01  3.157466873822E-01  3.233700754024E-01
  3.311775225029E-01  3.391734726062E-01  3.473624769288E-01  3.557491965718E-01
  3.643384051738E-01  3.731349916283E-01  3.821439628662E-01  3.913704467057E-01
  4.008196947709E-01  4.104970854815E-01  4.204081271133E-01  4.254530246387E-01
  4.305584609344E-01  4.357251624656E-01  4.409538644152E-01  4.462453107881E-01
  4.516002545176E-01  4.570194575718E-01  4.625036910627E-01  4.680537353554E-01
  4.736703801797E-01  4.793544247418E-01  4.851066778387E-01  4.909279579728E-01
  4.968190934685E-01  5.027809225901E-01  5.088142936612E-01  5.149200651851E-01
  5.210991059673E-01  5.273522952389E-01  5.336805227818E-01  5.400846890552E-01
  5.465657053239E-01  5.531244937877E-01  5.597619877132E-01  5.664791315658E-01
  5.732768811445E-01  5.801562037183E-01  5.871180781629E-01  5.941634951008E-01
  6.012934570421E-01  6.085089785266E-01  6.158110862689E-01  6.232008193041E-01
  6.306792291358E-01  6.382473798854E-01  6.459063484440E-01  6.536572246253E-01
  6.615011113208E-01  6.694391246567E-01  6.774723941526E-01  6.856020628824E-01
  6.938292876370E-01  7.021552390886E-01  7.105811019577E-01  7.191080751812E-01
  7.277373720834E-01  7.364702205484E-01  7.453078631950E-01  7.542515575533E-01
  7.633025762439E-01  7.724622071589E-01  7.817317536448E-01  7.911125346885E-01
  8.006058851048E-01  8.102131557260E-01  8.199357135947E-01  8.297749421579E-01
  8.397322414638E-01  8.498090283613E-01  8.600067367017E-01  8.703268175421E-01
  8.807707393526E-01  8.913399882248E-01  9.020360680835E-01  9.128605009005E-01
  9.238148269113E-01  9.349006048343E-01  9.461194120923E-01  9.574728450374E-01
  9.689625191778E-01  9.805900694080E-01  9.923571502409E-01  1.004265436044E+00
  1.016316621276E+00  1.028512420732E+00  1.040854569780E+00  1.053344824618E+00
  1.065984962513E+00  1.078776782063E+00  1.091722103448E+00  1.104822768689E+00
  1.118080641914E+00  1.131497609617E+00  1.145075580932E+00  1.158816487903E+00
  1.172722285758E+00  1.186794953187E+00  1.201036492625E+00  1.215448930537E+00
  1.230034317703E+00  1.244794729516E+00  1.259732266270E+00  1.274849053465E+00
  1.290147242107E+00  1.305629009012E+00  1.321296557120E+00  1.337152115806E+00
  1.353197941195E+00  1.369436316490E+00  1.385869552288E+00  1.402499986915E+00
  1.419329986758E+00  1.436361946599E+00  1.453598289958E+00  1.471041469438E+00
  1.488693967071E+00  1.506558294676E+00  1.524636994212E+00  1.542932638143E+00
  1.561447829800E+00  1.580185203758E+00  1.599147426203E+00  1.618337195317E+00
  1.637757241661E+00  1.657410328561E+00  1.677299252504E+00  1.697426843534E+00
  1.717795965656E+00  1.738409517244E+00  1.759270431451E+00  1.780381676629E+00
  1.801746256748E+00  1.823367211829E+00  1.845247618371E+00  1.867390589792E+00
  1.889799276869E+00  1.912476868191E+00  1.935426590610E+00  1.958651709697E+00
  1.982155530213E+00  2.005941396576E+00  2.030012693335E+00  2.054372845655E+00
  2.079025319803E+00  2.103973623640E+00  2.129221307124E+00  2.154771962810E+00
  2.180629226363E+00  2.206796777080E+00  2.233278338405E+00  2.260077678465E+00
  2.287198610607E+00  2.314644993934E+00  2.342420733862E+00  2.370529782668E+00
  2.398976140060E+00  2.427763853741E+00  2.456897019986E+00  2.486379784225E+00
  2.516216341636E+00  2.546410937736E+00  2.576967868988E+00  2.607891483416E+00
  2.639186181217E+00  2.670856415392E+00  2.702906692377E+00  2.735341572685E+00
  2.768165671557E+00  2.801383659616E+00  2.835000263531E+00  2.869020266694E+00
  2.903448509894E+00  2.938289892013E+00  2.973549370717E+00  3.009231963166E+00
  3.045342746724E+00  3.081886859684E+00  3.118869502001E+00  3.156295936025E+00
  3.194171487257E+00  3.232501545104E+00  3.271291563645E+00  3.310547062409E+00
  3.350273627158E+00  3.390476910684E+00  3.431162633612E+00  3.472336585215E+00
  3.514004624238E+00  3.556172679729E+00  3.598846751885E+00  3.642032912908E+00
  3.685737307863E+00  3.729966155557E+00  3.774725749424E+00  3.820022458417E+00
  3.865862727918E+00  3.912253080653E+00  3.959200117621E+00  4.006710519032E+00
  4.054791045261E+00  4.103448537804E+00  4.152689920258E+00  4.202522199301E+00
  4.252952465692E+00  4.303987895281E+00  4.355635750024E+00  4.407903379024E+00
  4.460798219573E+00  4.514327798207E+00  4.568499731786E+00  4.623321728567E+00
  4.678801589310E+00  4.734947208382E+00  4.791766574882E+00  4.849267773781E+00
  4.907458987066E+00  4.966348494911E+00  5.025944676850E+00  5.086256012972E+00
  5.147291085128E+00  5.209058578150E+00  5.271567281087E+00  5.334826088460E+00
  5.398844001522E+00  5.463630129540E+00  5.529193691095E+00  5.595544015388E+00
  5.662690543572E+00  5.730642830095E+00  5.799410544056E+00  5.869003470585E+00
  5.939431512232E+00  6.010704690379E+00  6.082833146664E+00  6.155827144423E+00
  6.229697070157E+00  6.304453434998E+00  6.380106876218E+00  6.456668158733E+00
  6.534148176638E+00  6.612557954757E+00  6.691908650215E+00  6.772211554017E+00
  6.853478092665E+00  6.935719829777E+00  7.018948467735E+00  7.103175849347E+00
  7.188413959540E+00  7.274674927054E+00  7.361971026179E+00  7.450314678493E+00
  7.539718454635E+00  7.630195076090E+00  7.721757417004E+00  7.814418506008E+00
  7.908191528080E+00  8.003089826417E+00  8.099126904334E+00  8.196316427186E+00
  8.294672224312E+00  8.394208291004E+00  8.494938790496E+00  8.596878055982E+00
  8.700040592653E+00  8.804441079765E+00  8.910094372722E+00  9.017015505195E+00
  9.125219691257E+00  9.234722327553E+00  9.345538995483E+00  9.457685463429E+00
  9.571177688990E+00  9.686031821258E+00  9.802264203113E+00  9.919891373550E+00
  1.003893007003E+01  1.015939723087E+01  1.028130999764E+01  1.040468571762E+01
  1.052954194623E+01  1.065589644958E+01  1.078376720698E+01  1.091317241346E+01
  1.104413048242E+01  1.117666004821E+01  1.131077996879E+01  1.144650932842E+01
  1.158386744036E+01  1.172287384964E+01  1.186354833584E+01  1.200591091587E+01
  1.214998184686E+01  1.229578162902E+01  1.244333100857E+01  1.259265098067E+01
  1.274376279244E+01  1.289668794595E+01  1.305144820130E+01  1.320806557971E+01
  1.336656236667E+01  1.352696111507E+01  1.368928464845E+01  1.385355606423E+01
  1.401979873700E+01  1.418803632185E+01  1.435829275771E+01  1.453059227080E+01
  1.470495937805E+01  1.488141889059E+01  1.505999591728E+01  1.524071586828E+01
  1.542360445870E+01  1.560868771221E+01  1.579599196475E+01  1.598554386833E+01
  1.617737039475E+01  1.637149883949E+01  1.656795682556E+01  1.676677230747E+01
  1.696797357516E+01  1.717158925806E+01  1.737764832916E+01  1.758618010911E+01
  1.779721427042E+01  1.801078084166E+01  1.822691021176E+01  1.844563313430E+01
  1.866698073191E+01  1.889098450070E+01  1.911767631470E+01  1.934708843048E+01
  1.957925349165E+01  1.981420453355E+01  2.005197498795E+01  2.029259868780E+01
  2.053610987206E+01  2.078254319052E+01  2.103193370881E+01  2.128431691331E+01
  2.153972871627E+01  2.179820546087E+01  2.205978392640E+01  2.232450133352E+01
  2.259239534952E+01  2.286350409371E+01  2.313786614284E+01  2.341552053655E+01
  2.369650678299E+01  2.398086486439E+01  2.426863524276E+01  2.455985886567E+01
  2.485457717206E+01  2.515283209812E+01  2.545466608330E+01  2.576012207630E+01
  2.606924354122E+01  2.638207446371E+01  2.669865935728E+01  2.701904326956E+01
  2.734327178880E+01  2.767139105026E+01  2.800344774287E+01  2.833948911578E+01
  2.867956298517E+01  2.902371774099E+01  2.937200235389E+01  2.972446638213E+01
  3.008115997872E+01  3.044213389846E+01  3.080743950524E+01  3.117712877931E+01
  3.155125432466E+01  3.192986937655E+01  3.231302780907E+01  3.270078414278E+01
  3.309319355250E+01  3.349031187513E+01  3.389219561763E+01  3.429890196504E+01
  3.471048878862E+01  3.512701465408E+01  3.554853882993E+01  3.597512129589E+01
  3.640682275144E+01  3.684370462446E+01  3.728582907995E+01  3.773325902891E+01
  3.818605813726E+01  3.864429083490E+01  3.910802232492E+01  3.957731859282E+01
  4.005224641594E+01  4.053287337293E+01  4.101926785340E+01  4.151149906764E+01
  4.200963705646E+01  4.251375270113E+01  4.302391773355E+01  4.354020474635E+01
  4.406268720331E+01
</grid-data>
</grid>
<valence-charge total-charge="15" is-unscreening-charge="yes"
 rescaled-to-z-pseudo="no">
<radfunc>
<data npts="457">
  1.093194420693E-02  1.093587780786E-02  1.094900524078E-02  1.097547126492E-02
  1.102463647404E-02  1.110520420538E-02  1.123685695582E-02  1.142746118925E-02
  1.169255400911E-02  1.206953191391E-02  1.258193704077E-02  1.324393697614E-02
  1.418987107015E-02  1.534801378565E-02  1.667836678112E-02  1.842520989854E-02
  2.072073514677E-02  2.317679873197E-02  2.626282010503E-02  3.014077069605E-02
  3.501370814653E-02  3.979727159006E-02  4.553792839659E-02  5.242533739236E-02
  6.068572412526E-02  7.058855717255E-02  8.245431596048E-02  9.286815074284E-02
  1.047846760703E-01  1.184148452609E-01  1.339976478174E-01  1.518034482440E-01
  1.721376278981E-01  1.953445328981E-01  2.218117232158E-01  2.519745075883E-01
  2.863207352417E-01  3.253957979996E-01  3.543705196107E-01  3.859125249750E-01
  4.202326207434E-01  4.575563635636E-01  4.981246951540E-01  5.421945370621E-01
  5.900393298336E-01  6.419494989053E-01  6.982328268923E-01  7.592147090508E-01
  8.252382655847E-01  8.966642811233E-01  9.738709381592E-01  1.057253307526E+00
  1.147222555164E+00  1.244204820534E+00  1.348639718159E+00  1.460978410030E+00
  1.581681193125E+00  1.711214543202E+00  1.850047553554E+00  1.998647705788E+00
  2.157475909145E+00  2.326980745762E+00  2.507591861927E+00  2.699712450181E+00
  2.903710774520E+00  3.119910701440E+00  3.348581213595E+00  3.467659177426E+00
  3.589924900960E+00  3.715391280891E+00  3.844065447119E+00  3.975948320259E+00
  4.111034156098E+00  4.249310078010E+00  4.390755598485E+00  4.535342131140E+00
  4.683032494776E+00  4.833780411246E+00  4.987529999139E+00  5.144215265513E+00
  5.303759598150E+00  5.466075261068E+00  5.631062896286E+00  5.798611035105E+00
  5.968595622450E+00  6.140879558072E+00  6.315312258737E+00  6.491729245739E+00
  6.669951762418E+00  6.849786426568E+00  7.031024922919E+00  7.213443741092E+00
  7.396803964656E+00  7.580851117102E+00  7.765315070743E+00  7.949910024631E+00
  8.134334557742E+00  8.318271763657E+00  8.501389473018E+00  8.683340569947E+00
  8.863763408473E+00  9.042282334857E+00  9.218508321375E+00  9.392039716784E+00
  9.562463118245E+00  9.729354368901E+00  9.892279684683E+00  1.005079691314E+01
  1.020445692625E+01  1.035280514808E+01  1.049538321734E+01  1.063173078324E+01
  1.076138743217E+01  1.088389474108E+01  1.099879845180E+01  1.110565075924E+01
  1.120401270442E+01  1.129345666154E+01  1.137356890665E+01  1.144395225342E+01
  1.150422873957E+01  1.155404234604E+01  1.159306172857E+01  1.162098294004E+01
  1.163753212009E+01  1.164246812693E+01  1.163558508504E+01  1.161671482116E+01
  1.158572916018E+01  1.154254205188E+01  1.148711149909E+01  1.141944125809E+01
  1.133958228248E+01  1.124763388246E+01  1.114374457323E+01  1.102811258755E+01
  1.090098603046E+01  1.076266265618E+01  1.061348925151E+01  1.045386061287E+01
  1.028421810930E+01  1.010504782761E+01  9.916878301730E+00  9.720277832916E+00
  9.515851413812E+00  9.304237274605E+00  9.086103075662E+00  8.862141776729E+00
  8.633067218450E+00  8.399609457316E+00  8.162509900144E+00  7.922516288634E+00
  7.680377588343E+00  7.436838839516E+00  7.192636029350E+00  6.948491046551E+00
  6.705106779268E+00  6.463162416596E+00  6.223309011921E+00  5.986165363282E+00
  5.752314261795E+00  5.522299153983E+00  5.296621257745E+00  5.075737164739E+00
  4.860056954274E+00  4.649942835652E+00  4.445708327303E+00  4.247617972383E+00
  4.055887581800E+00  3.870684987194E+00  3.692131278412E+00  3.520302492604E+00
  3.355231715496E+00  3.196911549731E+00  3.045296900523E+00  2.900308025430E+00
  2.761833792683E+00  2.629735091442E+00  2.503848337332E+00  2.383989017830E+00
  2.269955224209E+00  2.161531119893E+00  2.058490298965E+00  1.960598993179E+00
  1.867619090903E+00  1.779310936935E+00  1.695435887843E+00  1.615758603349E+00
  1.540049060074E+00  1.468084279706E+00  1.399649769115E+00  1.334540675101E+00
  1.272562661274E+00  1.213532518796E+00  1.157278526570E+00  1.103640579548E+00
  1.052470106442E+00  1.003629799940E+00  9.569931837368E-01  9.124440411433E-01
  8.698757298259E-01  8.291904064072E-01  7.902981243582E-01  7.531156994956E-01
  7.175656078278E-01  6.835754796664E-01  6.510775383444E-01  6.200080505671E-01
  5.903067853455E-01  5.619164955981E-01  5.347824356323E-01  5.088519265109E-01
  4.840739798004E-01  4.603989884435E-01  4.377786036439E-01  4.161661358363E-01
  3.955172120429E-01  3.757897393739E-01  3.569436301750E-01  3.389407932020E-01
  3.217450212067E-01  3.053218753245E-01  2.896385854006E-01  2.746639512679E-01
  2.603682495616E-01  2.467231454194E-01  2.337016091423E-01  2.212778377415E-01
  2.094271812771E-01  1.981260738638E-01  1.873519691966E-01  1.770832804298E-01
  1.672993242270E-01  1.579802687898E-01  1.491070856617E-01  1.406615051015E-01
  1.326259748141E-01  1.249836218305E-01  1.177182173248E-01  1.108141441645E-01
  1.042563669913E-01  9.803040463837E-02  9.212230469400E-02  8.651862003367E-02
  8.120638714732E-02  7.617310610044E-02  7.140672197631E-02  6.689560765700E-02
  6.262854781101E-02  5.859472396596E-02  5.478370055197E-02  5.118541182902E-02
  4.779014958218E-02  4.458855152704E-02  4.157159034464E-02  3.873056328608E-02
  3.605708229406E-02  3.354306459646E-02  3.118072373470E-02  2.896256099532E-02
  2.688135721884E-02  2.493016496400E-02  2.310230100817E-02  2.139133916674E-02
  1.979110341467E-02  1.829566129341E-02  1.689931758466E-02  1.559660823135E-02
  1.438229448348E-02  1.325135724481E-02  1.219899159399E-02  1.122060145251E-02
  1.031179437062E-02  9.468376402593E-03  8.686347043057E-03  7.961894197935E-03
  7.291389165947E-03  6.671381609625E-03  6.098594498613E-03  5.569919012086E-03
  5.082409391470E-03  4.633277739020E-03  4.219888762071E-03  3.839754466746E-03
  3.490528808504E-03  3.170002310025E-03  2.876096659470E-03  2.606859304189E-03
  2.360458056360E-03  2.135175727913E-03  1.929404812449E-03  1.741642231771E-03
  1.570484164062E-03  1.414620969925E-03  1.272832231270E-03  1.143981916661E-03
  1.027013685154E-03  9.209463389773E-04  8.248694336409E-04  7.379390523118E-04
  6.593737495420E-04  5.884506677475E-04  5.245018282439E-04  4.669105971569E-04
  4.151083251751E-04  3.685711589071E-04  3.268170205563E-04  2.894027517407E-04
  2.559214165604E-04  2.259997584466E-04  1.992958049125E-04  1.754966140418E-04
  1.543161564015E-04  1.354933260161E-04  1.187900740877E-04  1.039896592654E-04
  9.089500844624E-05  7.932718230871E-05  6.912394002476E-05  6.013839786018E-05
  5.223777663610E-05  4.530223328702E-05  3.922377200096E-05  3.390523066402E-05
  2.925933855009E-05  2.520784139734E-05  2.168069019508E-05  1.861529016949E-05
  1.595580660590E-05  1.365252428085E-05  1.166125740109E-05  9.942807061866E-06
  8.462463344795E-06  7.189549278594E-06  6.097003986068E-06  5.161002438589E-06
  4.360609336848E-06  3.677464734190E-06  3.095499117112E-06  2.600675756733E-06
  2.180758245339E-06  1.825101233245E-06  1.524462483076E-06  1.270834460577E-06
  1.057293782995E-06  8.778669471671E-07  7.274108594378E-07  6.015067876850E-07
  4.963664517131E-07  4.087490615329E-07  3.358882032133E-07  2.754275587072E-07
  2.253645290104E-07  1.840009089878E-07  1.498998370101E-07  1.218483130796E-07
  9.882464530324E-08  7.997024641304E-08  6.456525953687E-08  5.200754569035E-08
  4.179461458038E-08  3.350812543169E-08  2.680062582574E-08  2.138423415827E-08
  1.702100547041E-08  1.351475129353E-08  1.070411197676E-08  8.456704952171E-09
  6.664194743987E-09  5.238150453874E-09  4.106574154335E-09  3.210999291802E-09
  2.504072025116E-09  1.947540580008E-09  1.510588351376E-09  1.168455787561E-09
  9.013041880322E-10  6.932815709131E-10  5.317568412267E-10  4.066937261202E-10
  3.101404405578E-10  2.358148974898E-10  1.787685624295E-10  1.351148472667E-10
  1.018103075361E-10  7.647890939290E-11  5.727131855636E-11  4.275257864010E-11
  3.181273011895E-11  2.359590818848E-11  1.744427789050E-11  1.285384401678E-11
  9.439733773615E-12  6.909011138635E-12  5.039459625831E-12  3.663078721185E-12
  2.653290362204E-12  1.915055478223E-12  1.377265167051E-12  9.869035797607E-13
  7.045858785027E-13  5.011595913438E-13  3.551253438902E-13  2.506866225707E-13
  1.762806472580E-13  1.234758325124E-13  8.614751426364E-14  5.986408607676E-14
  4.143161681241E-14  2.855736719146E-14  1.960215364482E-14  1.339883582516E-14
  9.119815326856E-15  6.180711924748E-15  4.170632715747E-15  2.801906286045E-15
  1.874003658633E-15  1.247754382688E-15  8.270009377732E-16  5.456036026518E-16
  3.582767257364E-16  2.341561781896E-16  1.523047764755E-16  9.858644919060E-17
  6.350257587744E-17  4.070147852323E-17  2.595659705307E-17  1.646939840624E-17
  1.039617287590E-17  6.528419736075E-18  4.078065323058E-18  2.533869231619E-18
  1.565922135221E-18  9.624623581233E-19  5.882965167229E-19  3.575844687486E-19
  2.161231775622E-19  1.298776284299E-19  7.759737808457E-20  4.609014118614E-20
  2.721353162505E-20  1.597142274609E-20  0.000000000000E+00  0.000000000000E+00
  0.000000000000E+00  0.000000000000E+00  0.000000000000E+00  0.000000000000E+00
  0.000000000000E+00  0.000000000000E+00  0.000000000000E+00  0.000000000000E+00
  0.000000000000E+00  0.000000000000E+00  0.000000000000E+00  0.000000000000E+00
  0.000000000000E+00
</data>
</radfunc>
</valence-charge>
<pseudocore-charge matching-radius="1.01631662128"
 number-of-continuous-derivatives="4">
<annotation model-charge-form="Teter function with specified parameters" />
<radfunc>
<data npts="290">
  6.423608225625E+01  6.423331200515E+01  6.422503047279E+01  6.421121296171E+01
  6.419093567467E+01  6.416505870736E+01  6.413207246367E+01  6.409429154956E+01
  6.405179969138E+01  6.400223236794E+01  6.394634197941E+01  6.388556944291E+01
  6.381208960042E+01  6.373530913699E+01  6.365856822133E+01  6.357012481532E+01
  6.346821343384E+01  6.337154656375E+01  6.326279797140E+01  6.314048118801E+01
  6.300293319065E+01  6.288068628755E+01  6.274645535895E+01  6.259909381354E+01
  6.243735128269E+01  6.225986548580E+01  6.206515373512E+01  6.190685084433E+01
  6.173722386722E+01  6.155549625909E+01  6.136084337675E+01  6.115239030923E+01
  6.092920974758E+01  6.069031992392E+01  6.043468265560E+01  6.016120153653E+01
  5.986872032516E+01  5.955602158644E+01  5.933569445047E+01  5.910541962983E+01
  5.886478999186E+01  5.861338595733E+01  5.835077556942E+01  5.807651462395E+01
  5.779014686800E+01  5.749120427480E+01  5.717920740365E+01  5.685366585374E+01
  5.651407882189E+01  5.615993577459E+01  5.579071724552E+01  5.540589577044E+01
  5.500493697188E+01  5.458730080686E+01  5.415244299147E+01  5.369981661654E+01
  5.322887396954E+01  5.273906857779E+01  5.222985748890E+01  5.170070380419E+01
  5.115107948107E+01  5.058046842015E+01  4.998836985264E+01  4.937430204259E+01
  4.873780631793E+01  4.807845144275E+01  4.739583834144E+01  4.704569528247E+01
  4.668960518319E+01  4.632752952846E+01  4.595943283235E+01  4.558528282865E+01
  4.520505066694E+01  4.481871111442E+01  4.442624276317E+01  4.402762824294E+01
  4.362285443917E+01  4.321191271619E+01  4.279479914529E+01  4.237151473762E+01
  4.194206568143E+01  4.150646358356E+01  4.106472571467E+01  4.061687525802E+01
  4.016294156119E+01  3.970296039042E+01  3.923697418702E+01  3.876503232526E+01
  3.828719137112E+01  3.780351534134E+01  3.731407596187E+01  3.681895292515E+01
  3.631823414514E+01  3.581201600945E+01  3.530040362737E+01  3.478351107292E+01
  3.426146162176E+01  3.373438798080E+01  3.320243250921E+01  3.266574742968E+01
  3.212449502838E+01  3.157884784224E+01  3.102898883205E+01  3.047511153978E+01
  2.991742022846E+01  2.935613000291E+01  2.879146690953E+01  2.822366801337E+01
  2.765298145052E+01  2.707966645392E+01  2.650399335068E+01  2.592624352878E+01
  2.534670937121E+01  2.476569415549E+01  2.418351191647E+01  2.360048727042E+01
  2.301695519836E+01  2.243326078664E+01  2.184975892281E+01  2.126681394488E+01
  2.068479924227E+01  2.010409680666E+01  1.952509673119E+01  1.894819665663E+01
  1.837380116326E+01  1.780232110732E+01  1.723417290136E+01  1.666977773776E+01
  1.610956075512E+01  1.555395014767E+01  1.500337621776E+01  1.445827037240E+01
  1.391906406475E+01  1.338618768205E+01  1.286006938219E+01  1.234113388095E+01
  1.182980119325E+01  1.132648533158E+01  1.083159296582E+01  1.034552204886E+01
  9.868660413388E+00  9.401384345419E+00  8.944057141077E+00  8.497027653537E+00
  8.060628837735E+00  7.635176300998E+00  7.220966868351E+00  6.818277171778E+00
  6.427362273230E+00  6.048454331663E+00  5.681761324756E+00  5.327465836344E+00
  4.985723920853E+00  4.656664056208E+00  4.340386196788E+00  4.036960937950E+00
  3.746428803531E+00  3.468799667452E+00  3.204052320119E+00  2.952134189792E+00
  2.712961228331E+00  2.486417969867E+00  2.272357769895E+00  2.070603231051E+00
  1.880946820453E+00  1.703151681909E+00  1.536952644588E+00  1.382057427843E+00
  1.238148039888E+00  1.104882365849E+00  9.818959384867E-01  8.688038825252E-01
  7.652030211726E-01  6.706741309846E-01  5.847843288536E-01  5.070895725747E-01
  4.371372542106E-01  3.744688634039E-01  3.186226958996E-01  2.691365809066E-01
  2.255505995870E-01  1.874097659631E-01  1.542666409292E-01  1.256838498813E-01
  1.012364747777E-01  8.051429224338E-02  6.312383065911E-02  4.869022103568E-02
  3.685881887917E-02  2.729657718021E-02  1.969315409287E-02  1.376174276235E-02
  9.239615062036E-03  5.888375637753E-03  3.493927546110E-03  1.866155813476E-03
  8.383403217986E-04  2.663144236515E-04  2.739047221532E-05  1.907788809958E-05
  1.576233399277E-04  3.764059597134E-04  6.242231268609E-04  8.635041301648E-04
  1.068489869112E-03  1.223416622331E-03  1.320740759573E-03  1.359439104545E-03
  1.343416505552E-03  1.280048113082E-03  1.178879009755E-03  1.050498336190E-03
  9.055990867980E-04  7.542285202368E-04  6.052278685636E-04  4.658539765287E-04
  3.415698985307E-04  2.359865555647E-04  1.509335155331E-04  8.663398064840E-05
  4.195727289335E-05  1.472157512315E-05  2.020421732449E-06  5.483830139917E-07
  6.904429028619E-06  1.785540696194E-05  3.054668106106E-05  4.265198479163E-05
  5.245961349086E-05  5.889692858922E-05  6.149945199424E-05  6.033433799122E-05
  5.589051271097E-05  4.894913388526E-05  4.044819808723E-05  3.135415271701E-05
  2.255139017571E-05  1.475772812227E-05  8.470693275943E-06  3.945948705457E-06
  1.205869799728E-06  7.339658627715E-08  2.241336584542E-07  1.248419667798E-06
  2.714833770621E-06  4.227325273034E-06  5.469715876724E-06  6.233508107067E-06
  6.427446659261E-06  6.069795547921E-06  5.266493654050E-06  4.179962820562E-06
  2.994178446809E-06  1.881595258277E-06  9.766951393247E-07  3.594503691753E-07
  5.012803672448E-08  0.000000000000E+00  0.000000000000E+00  0.000000000000E+00
  0.000000000000E+00  0.000000000000E+00  0.000000000000E+00  0.000000000000E+00
  0.000000000000E+00  0.000000000000E+00  0.000000000000E+00  0.000000000000E+00
  0.000000000000E+00  0.000000000000E+00  0.000000000000E+00  0.000000000000E+00
  0.000000000000E+00  0.000000000000E+00  0.000000000000E+00  0.000000000000E+00
  0.000000000000E+00  0.000000000000E+00  0.000000000000E+00  0.000000000000E+00
  0.000000000000E+00  0.000000000000E+00  0.000000000000E+00  0.000000000000E+00
  0.000000000000E+00  0.000000000000E+00  0.000000000000E+00  0.000000000000E+00
  0.000000000000E+00  0.000000000000E+00
</data>
</radfunc>
</pseudocore-charge>
<semilocal-potentials set="scalar_relativistic">
<slps n="6" l="s" rc="2.42776385374" eref="-0.534159287254">
<radfunc>
<data npts="290">
  1.011887893704E+01  1.011439236624E+01  1.010098891259E+01  1.007865535460E+01
  1.004594787287E+01  1.000432365285E+01  9.951450917961E+00  9.891149047998E+00
  9.823652620955E+00  9.745347994408E+00  9.657606126826E+00  9.562857003679E+00
  9.449200489083E+00  9.331483315490E+00  9.214879576698E+00  9.081781923698E+00
  8.930099876297E+00  8.787862275473E+00  8.629721280779E+00  8.454176951709E+00
  8.259656482763E+00  8.089282518784E+00  7.904866269581E+00  7.705545682491E+00
  7.490460937407E+00  7.258766379819E+00  7.009644447899E+00  6.810898818357E+00
  6.601609593661E+00  6.381496677798E+00  6.150309174870E+00  5.907830622998E+00
  5.653884443161E+00  5.388339536323E+00  5.111115948131E+00  4.822190506457E+00
  4.521602323874E+00  4.209458045199E+00  3.995027106516E+00  3.775609954238E+00
  3.551294097509E+00  3.322183154912E+00  3.088397216932E+00  2.850073126616E+00
  2.607364671238E+00  2.360442678399E+00  2.109495010723E+00  1.854726454276E+00
  1.596358496854E+00  1.334628993485E+00  1.069791717796E+00  8.021157992641E-01
  5.318850478838E-01  2.593971692382E-01 -1.503712547168E-02 -2.910951083979E-01
 -5.684431155098E-01 -8.467377096728E-01 -1.125626916204E+00 -1.404751519663E+00
 -1.683746409694E+00 -1.962241963035E+00 -2.239865448287E+00 -2.516242439784E+00
 -2.790998226947E+00 -3.063759205720E+00 -3.334154239267E+00 -3.468349546341E+00
 -3.601815975898E+00 -3.734508407837E+00 -3.866382113251E+00 -3.997392790328E+00
 -4.127496599077E+00 -4.256650194831E+00 -4.384810760488E+00 -4.511936037457E+00
 -4.637984355295E+00 -4.762914660001E+00 -4.886686540992E+00 -5.009260256724E+00
 -5.130596759019E+00 -5.250657716066E+00 -5.369405534180E+00 -5.486803378318E+00
 -5.602815191426E+00 -5.717405712667E+00 -5.830540494607E+00 -5.942185919432E+00
 -6.052309214287E+00 -6.160878465836E+00 -6.267862634155E+00 -6.373231566065E+00
 -6.476956008047E+00 -6.579007618851E+00 -6.679358981969E+00 -6.777983618100E+00
 -6.874855997775E+00 -6.969951554304E+00 -7.063246697214E+00 -7.154718826344E+00
 -7.244346346785E+00 -7.332108684824E+00 -7.417986305076E+00 -7.501960728975E+00
 -7.584014554770E+00 -7.664131479205E+00 -7.742296320996E+00 -7.818495046239E+00
 -7.892714795841E+00 -7.964943915050E+00 -8.035171985110E+00 -8.103389857057E+00
 -8.169589687587E+00 -8.233764976922E+00 -8.295910608507E+00 -8.356022890332E+00
 -8.414099597596E+00 -8.470140016360E+00 -8.524144987771E+00 -8.576116952341E+00
 -8.626059993716E+00 -8.673979881254E+00 -8.719884110701E+00 -8.763781942143E+00
 -8.805684434354E+00 -8.845604474618E+00 -8.883556803037E+00 -8.919558030289E+00
 -8.953626647796E+00 -8.985783029213E+00 -9.016049422188E+00 -9.044449929304E+00
 -9.071010477190E+00 -9.095758772774E+00 -9.118724245744E+00 -9.139937976308E+00
 -9.159432607434E+00 -9.177242240800E+00 -9.193402315811E+00 -9.207949471046E+00
 -9.220921387680E+00 -9.232356614425E+00 -9.242294373680E+00 -9.250774348660E+00
 -9.257836451338E+00 -9.263520571176E+00 -9.267866304698E+00 -9.270912666088E+00
 -9.272697779120E+00 -9.273258550919E+00 -9.272630328210E+00 -9.270846536996E+00