<?xml version="1.0" encoding="UTF-8" ?>
<psml version="1.1" energy_unit="hartree" length_unit="bohr"
 uuid="6de84b50-1d66-11e8-56c8-8f78f177367b"
 xmlns="http://esl.cecam.org/PSML/ns/1.1">
<provenance creator="ONCVPSP-3.3.0+psml-3.3.0-73 (scalar-relativistic)"
 date="2018-03-01">
<annotation action="semilocal-pseudopotential-generation"
 action-cont="projectors-generation" />
<input-file name="oncvpsp-input">
<![CDATA[# atsym z nc nv iexc psfile
Bi 83 10 5 -116133 upf
# n l f
1 0 2.0
2 0 2.0
2 1 6.0
3 0 2.0
3 1 6.0
3 2 10.0
4 0 2.0
4 1 6.0
4 2 10.0
4 3 14.0
5 0 2.0
5 1 6.0
5 2 10.0
6 0 2.0
6 1 3.0
# lmax
2
# l rc ep ncon nbas qcut
0 1.4 0.0 4 8 9.0
1 1.5 0.0 4 8 8.4
2 1.4 0.0 4 8 9.0
# lloc lpopt rc5 dvloc0
4 5 1.3 0.0
# l nproj debl
0 2 1.0
1 2 1.0
2 2 2.0
# icmod fcfact rcfact
3 6.0 1.34
# epsh1 epsh2 depsh
-12.0 12.0 0.02
# rlmax drl
6.0 0.01
 0
]]>
</input-file>
</provenance>
<pseudo-atom-spec atomic-label="Bi" atomic-number="83" z-pseudo="23"
 flavor="Hamann&apos;s oncvpsp" relativity="scalar" spin-dft="no"
 core-corrections="yes">
<annotation pseudo-energy="-217.475516891" />
<exchange-correlation>
<annotation oncvpsp-xc-code="-116133" oncvpsp-xc-type="libxc-interface" />
<libxc-info number-of-functionals="2">
<functional name="Perdew, Burke &amp; Ernzerhof SOL (GGA)" type="exchange"
 id="116" />
<functional name="Perdew, Burke &amp; Ernzerhof SOL (GGA)" type="correlation"
 id="133" />
</libxc-info>
</exchange-correlation>
<valence-configuration total-valence-charge="23">
<shell n="5" l="s" occupation="2" />
<shell n="5" l="p" occupation="6" />
<shell n="5" l="d" occupation="10" />
<shell n="6" l="s" occupation="2" />
<shell n="6" l="p" occupation="3" />
</valence-configuration>
</pseudo-atom-spec>
<grid npts="457">
<annotation type="sampled from oncvpsp log grid"
 recipe="r(i:1..N) = r1*exp(a*(i-1)) + r=0; resampled"
 recipe-cont="r1: scale; a: step" scale="0.602409638554E-05"
 step="0.119285708653E-01" delta="0.500000000000E-02" rmax="44.0626872033" />
<grid-data>
  0.000000000000E+00  5.031540399417E-03  1.005010708672E-02  1.507676322460E-02
  2.031519180407E-02  2.548300647672E-02  3.084173950167E-02  3.601517482036E-02
  4.106493736582E-02  4.626752728992E-02  5.151110926994E-02  5.666892867097E-02
  6.234320173317E-02  6.777237261092E-02  7.280073515825E-02  7.820217642384E-02
  8.400437693564E-02  8.916706618068E-02  9.464704080075E-02  1.004638003250E-01
  1.066380426725E-01  1.118495432830E-01  1.173157347894E-01  1.230490641731E-01
  1.290625867116E-01  1.353699957055E-01  1.419856536601E-01  1.471587203454E-01
  1.525202611353E-01  1.580771428440E-01  1.638364824694E-01  1.698056563082E-01
  1.759923094030E-01  1.824043653339E-01  1.890500363665E-01  1.959378339698E-01
  2.030765797176E-01  2.104754165862E-01  2.155571350442E-01  2.207615465127E-01
  2.260916132918E-01  2.315503692031E-01  2.371409213171E-01  2.428664517214E-01
  2.487302193317E-01  2.547355617473E-01  2.608858971501E-01  2.671847262509E-01
  2.736356342815E-01  2.802422930356E-01  2.870084629587E-01  2.939379952883E-01
  3.010348342466E-01  3.083030192846E-01  3.157466873822E-01  3.233700754024E-01
  3.311775225029E-01  3.391734726062E-01  3.473624769288E-01  3.557491965718E-01
  3.643384051738E-01  3.731349916283E-01  3.821439628662E-01  3.913704467057E-01
  4.008196947709E-01  4.104970854815E-01  4.204081271133E-01  4.254530246387E-01
  4.305584609344E-01  4.357251624656E-01  4.409538644152E-01  4.462453107881E-01
  4.516002545176E-01  4.570194575718E-01  4.625036910627E-01  4.680537353554E-01
  4.736703801797E-01  4.793544247418E-01  4.851066778387E-01  4.909279579728E-01
  4.968190934685E-01  5.027809225901E-01  5.088142936612E-01  5.149200651851E-01
  5.210991059673E-01  5.273522952389E-01  5.336805227818E-01  5.400846890552E-01
  5.465657053239E-01  5.531244937877E-01  5.597619877132E-01  5.664791315658E-01
  5.732768811445E-01  5.801562037183E-01  5.871180781629E-01  5.941634951008E-01
  6.012934570421E-01  6.085089785266E-01  6.158110862689E-01  6.232008193041E-01
  6.306792291358E-01  6.382473798854E-01  6.459063484440E-01  6.536572246253E-01
  6.615011113208E-01  6.694391246567E-01  6.774723941526E-01  6.856020628824E-01
  6.938292876370E-01  7.021552390886E-01  7.105811019577E-01  7.191080751812E-01
  7.277373720834E-01  7.364702205484E-01  7.453078631950E-01  7.542515575533E-01
  7.633025762439E-01  7.724622071589E-01  7.817317536448E-01  7.911125346885E-01
  8.006058851048E-01  8.102131557260E-01  8.199357135947E-01  8.297749421579E-01
  8.397322414638E-01  8.498090283613E-01  8.600067367017E-01  8.703268175421E-01
  8.807707393526E-01  8.913399882248E-01  9.020360680835E-01  9.128605009005E-01
  9.238148269113E-01  9.349006048343E-01  9.461194120923E-01  9.574728450374E-01
  9.689625191778E-01  9.805900694080E-01  9.923571502409E-01  1.004265436044E+00
  1.016316621276E+00  1.028512420732E+00  1.040854569780E+00  1.053344824618E+00
  1.065984962513E+00  1.078776782063E+00  1.091722103448E+00  1.104822768689E+00
  1.118080641914E+00  1.131497609617E+00  1.145075580932E+00  1.158816487903E+00
  1.172722285758E+00  1.186794953187E+00  1.201036492625E+00  1.215448930537E+00
  1.230034317703E+00  1.244794729516E+00  1.259732266270E+00  1.274849053465E+00
  1.290147242107E+00  1.305629009012E+00  1.321296557120E+00  1.337152115806E+00
  1.353197941195E+00  1.369436316490E+00  1.385869552288E+00  1.402499986915E+00
  1.419329986758E+00  1.436361946599E+00  1.453598289958E+00  1.471041469438E+00
  1.488693967071E+00  1.506558294676E+00  1.524636994212E+00  1.542932638143E+00
  1.561447829800E+00  1.580185203758E+00  1.599147426203E+00  1.618337195317E+00
  1.637757241661E+00  1.657410328561E+00  1.677299252504E+00  1.697426843534E+00
  1.717795965656E+00  1.738409517244E+00  1.759270431451E+00  1.780381676629E+00
  1.801746256748E+00  1.823367211829E+00  1.845247618371E+00  1.867390589792E+00
  1.889799276869E+00  1.912476868191E+00  1.935426590610E+00  1.958651709697E+00
  1.982155530213E+00  2.005941396576E+00  2.030012693335E+00  2.054372845655E+00
  2.079025319803E+00  2.103973623640E+00  2.129221307124E+00  2.154771962810E+00
  2.180629226363E+00  2.206796777080E+00  2.233278338405E+00  2.260077678465E+00
  2.287198610607E+00  2.314644993934E+00  2.342420733862E+00  2.370529782668E+00
  2.398976140060E+00  2.427763853741E+00  2.456897019986E+00  2.486379784225E+00
  2.516216341636E+00  2.546410937736E+00  2.576967868988E+00  2.607891483416E+00
  2.639186181217E+00  2.670856415392E+00  2.702906692377E+00  2.735341572685E+00
  2.768165671557E+00  2.801383659616E+00  2.835000263531E+00  2.869020266694E+00
  2.903448509894E+00  2.938289892013E+00  2.973549370717E+00  3.009231963166E+00
  3.045342746724E+00  3.081886859684E+00  3.118869502001E+00  3.156295936025E+00
  3.194171487257E+00  3.232501545104E+00  3.271291563645E+00  3.310547062409E+00
  3.350273627158E+00  3.390476910684E+00  3.431162633612E+00  3.472336585215E+00
  3.514004624238E+00  3.556172679729E+00  3.598846751885E+00  3.642032912908E+00
  3.685737307863E+00  3.729966155557E+00  3.774725749424E+00  3.820022458417E+00
  3.865862727918E+00  3.912253080653E+00  3.959200117621E+00  4.006710519032E+00
  4.054791045261E+00  4.103448537804E+00  4.152689920258E+00  4.202522199301E+00
  4.252952465692E+00  4.303987895281E+00  4.355635750024E+00  4.407903379024E+00
  4.460798219573E+00  4.514327798207E+00  4.568499731786E+00  4.623321728567E+00
  4.678801589310E+00  4.734947208382E+00  4.791766574882E+00  4.849267773781E+00
  4.907458987066E+00  4.966348494911E+00  5.025944676850E+00  5.086256012972E+00
  5.147291085128E+00  5.209058578150E+00  5.271567281087E+00  5.334826088460E+00
  5.398844001522E+00  5.463630129540E+00  5.529193691095E+00  5.595544015388E+00
  5.662690543572E+00  5.730642830095E+00  5.799410544056E+00  5.869003470585E+00
  5.939431512232E+00  6.010704690379E+00  6.082833146664E+00  6.155827144423E+00
  6.229697070157E+00  6.304453434998E+00  6.380106876218E+00  6.456668158733E+00
  6.534148176638E+00  6.612557954757E+00  6.691908650215E+00  6.772211554017E+00
  6.853478092665E+00  6.935719829777E+00  7.018948467735E+00  7.103175849347E+00
  7.188413959540E+00  7.274674927054E+00  7.361971026179E+00  7.450314678493E+00
  7.539718454635E+00  7.630195076090E+00  7.721757417004E+00  7.814418506008E+00
  7.908191528080E+00  8.003089826417E+00  8.099126904334E+00  8.196316427186E+00
  8.294672224312E+00  8.394208291004E+00  8.494938790496E+00  8.596878055982E+00
  8.700040592653E+00  8.804441079765E+00  8.910094372722E+00  9.017015505195E+00
  9.125219691257E+00  9.234722327553E+00  9.345538995483E+00  9.457685463429E+00
  9.571177688990E+00  9.686031821258E+00  9.802264203113E+00  9.919891373550E+00
  1.003893007003E+01  1.015939723087E+01  1.028130999764E+01  1.040468571762E+01
  1.052954194623E+01  1.065589644958E+01  1.078376720698E+01  1.091317241346E+01
  1.104413048242E+01  1.117666004821E+01  1.131077996879E+01  1.144650932842E+01
  1.158386744036E+01  1.172287384964E+01  1.186354833584E+01  1.200591091587E+01
  1.214998184686E+01  1.229578162902E+01  1.244333100857E+01  1.259265098067E+01
  1.274376279244E+01  1.289668794595E+01  1.305144820130E+01  1.320806557971E+01
  1.336656236667E+01  1.352696111507E+01  1.368928464845E+01  1.385355606423E+01
  1.401979873700E+01  1.418803632185E+01  1.435829275771E+01  1.453059227080E+01
  1.470495937805E+01  1.488141889059E+01  1.505999591728E+01  1.524071586828E+01
  1.542360445870E+01  1.560868771221E+01  1.579599196475E+01  1.598554386833E+01
  1.617737039475E+01  1.637149883949E+01  1.656795682556E+01  1.676677230747E+01
  1.696797357516E+01  1.717158925806E+01  1.737764832916E+01  1.758618010911E+01
  1.779721427042E+01  1.801078084166E+01  1.822691021176E+01  1.844563313430E+01
  1.866698073191E+01  1.889098450070E+01  1.911767631470E+01  1.934708843048E+01
  1.957925349165E+01  1.981420453355E+01  2.005197498795E+01  2.029259868780E+01
  2.053610987206E+01  2.078254319052E+01  2.103193370881E+01  2.128431691331E+01
  2.153972871627E+01  2.179820546087E+01  2.205978392640E+01  2.232450133352E+01
  2.259239534952E+01  2.286350409371E+01  2.313786614284E+01  2.341552053655E+01
  2.369650678299E+01  2.398086486439E+01  2.426863524276E+01  2.455985886567E+01
  2.485457717206E+01  2.515283209812E+01  2.545466608330E+01  2.576012207630E+01
  2.606924354122E+01  2.638207446371E+01  2.669865935728E+01  2.701904326956E+01
  2.734327178880E+01  2.767139105026E+01  2.800344774287E+01  2.833948911578E+01
  2.867956298517E+01  2.902371774099E+01  2.937200235389E+01  2.972446638213E+01
  3.008115997872E+01  3.044213389846E+01  3.080743950524E+01  3.117712877931E+01
  3.155125432466E+01  3.192986937655E+01  3.231302780907E+01  3.270078414278E+01
  3.309319355250E+01  3.349031187513E+01  3.389219561763E+01  3.429890196504E+01
  3.471048878862E+01  3.512701465408E+01  3.554853882993E+01  3.597512129589E+01
  3.640682275144E+01  3.684370462446E+01  3.728582907995E+01  3.773325902891E+01
  3.818605813726E+01  3.864429083490E+01  3.910802232492E+01  3.957731859282E+01
  4.005224641594E+01  4.053287337293E+01  4.101926785340E+01  4.151149906764E+01
  4.200963705646E+01  4.251375270113E+01  4.302391773355E+01  4.354020474635E+01
  4.406268720331E+01
</grid-data>
</grid>
<valence-charge total-charge="23" is-unscreening-charge="yes"
 rescaled-to-z-pseudo="no">
<radfunc>
<data npts="457">
  5.713883858888E+00  5.717242367827E+00  5.727282297096E+00  5.744033139905E+00
  5.768613962300E+00  5.799980900011E+00  5.839962069066E+00  5.885749967426E+00
  5.937241090290E+00  5.997297760324E+00  6.065004360876E+00  6.138611339585E+00
  6.227589131471E+00  6.320539211973E+00  6.413415382460E+00  6.520420915565E+00
  6.643674344577E+00  6.760536653299E+00  6.891945904673E+00  7.039672601110E+00
  7.205690873872E+00  7.353144137845E+00  7.514942293902E+00  7.692428571493E+00
  7.887059614258E+00  8.100411958490E+00  8.334188010890E+00  8.524020986470E+00
  8.727193997465E+00  8.944573527056E+00  9.177069556031E+00  9.425635236616E+00
  9.691265935550E+00  9.974997499412E+00  1.027790356938E+01  1.060109174326E+01
  1.094569834963E+01  1.131288156188E+01  1.157079106512E+01  1.183960307950E+01
  1.211966423978E+01  1.241131779500E+01  1.271490128708E+01  1.303074390602E+01
  1.335916349003E+01  1.370046313696E+01  1.405492739187E+01  1.442281797415E+01
  1.480436900685E+01  1.519978170995E+01  1.560921851987E+01  1.603279659796E+01
  1.647058069279E+01  1.692257532410E+01  1.738871626040E+01  1.786886126867E+01
  1.836278012258E+01  1.887014386615E+01  1.939051334284E+01  1.992332701666E+01
  2.046788813110E+01  2.102335127585E+01  2.158870845885E+01  2.216277481385E+01
  2.274417411108E+01  2.333132428140E+01  2.392242321178E+01  2.421882676345E+01
  2.451543512335E+01  2.481195522868E+01  2.510807790042E+01  2.540347753031E+01
  2.569781180123E+01  2.599072144546E+01  2.628183004572E+01  2.657074388383E+01
  2.685705184247E+01  2.714032536556E+01  2.742011848280E+01  2.769596790462E+01
  2.796739319348E+01  2.823389701793E+01  2.849496549580E+01  2.875006863304E+01
  2.899866086484E+01  2.924018170541E+01  2.947405651307E+01  2.969969737693E+01
  2.991650413114E+01  3.012386550290E+01  3.032116039926E+01  3.050775933815E+01
  3.068302602768E+01  3.084631909770E+01  3.099699398642E+01  3.113440498416E+01
  3.125790743506E+01  3.136686009663E+01  3.146062765542E+01  3.153858339580E+01
  3.160011201718E+01  3.164461259315E+01  3.167150166433E+01  3.168021645451E+01
  3.167021819771E+01  3.164099556136E+01  3.159206814879E+01  3.152299006151E+01
  3.143335349971E+01  3.132279237675E+01  3.119098592108E+01  3.103766223703E+01
  3.086260179320E+01  3.066564080570E+01  3.044667448139E+01  3.020566008473E+01
  2.994261979090E+01  2.965764328663E+01  2.935089008024E+01  2.902259148208E+01
  2.867305221747E+01  2.830265163549E+01  2.791184447863E+01  2.750116118100E+01
  2.707120766608E+01  2.662266461881E+01  2.615628621126E+01  2.567289826679E+01
  2.517339585304E+01  2.465874030082E+01  2.412995565278E+01  2.358812455288E+01
  2.303438359563E+01  2.246991816124E+01  2.189595677076E+01  2.131376500268E+01
  2.072463901941E+01  2.012989875873E+01  1.953088085091E+01  1.892893132720E+01
  1.832539818940E+01  1.772162391252E+01  1.711893795446E+01  1.651864934639E+01
  1.592203943634E+01  1.533035485626E+01  1.474480077833E+01  1.416653452207E+01
  1.359665956719E+01  1.303622002089E+01  1.248619558064E+01  1.194749702599E+01
  1.142096226554E+01  1.090735295747E+01  1.040735171540E+01  9.921559905047E+00
  9.450496031956E+00  8.994594716119E+00  8.554206246284E+00  8.129596704378E+00
  7.720948649293E+00  7.328362348787E+00  6.951857548365E+00  6.591375766982E+00
  6.246783111739E+00  5.917873604872E+00  5.604373013606E+00  5.305943171085E+00
  5.022188316694E+00  4.752668065532E+00  4.496913791769E+00  4.254435125039E+00
  4.024723067234E+00  3.807255363166E+00  3.601501607967E+00  3.406930970925E+00
  3.223020711351E+00  3.049258004287E+00  2.885141687272E+00  2.730183617457E+00
  2.583909847613E+00  2.445861578265E+00  2.315595913199E+00  2.192686433008E+00
  2.076723602466E+00  1.967315027061E+00  1.864085573588E+00  1.766677369130E+00
  1.674749692159E+00  1.587978768779E+00  1.506057486465E+00  1.428695036832E+00
  1.355616498277E+00  1.286562368506E+00  1.221288056200E+00  1.159563340331E+00
  1.101171804850E+00  1.045910255769E+00  9.935881269555E-01  9.440268802581E-01
  8.970594049816E-01  8.525294210851E-01  8.102908899318E-01  7.702074358734E-01
  7.321517814602E-01  6.960051986084E-01  6.616569776335E-01  6.290039156763E-01
  5.979498256940E-01  5.684050668781E-01  5.402860970742E-01  5.135150475307E-01
  4.880193200803E-01  4.637312066662E-01  4.405875309563E-01  4.185293116480E-01
  3.975014469445E-01  3.774524195845E-01  3.583340217268E-01  3.401010989274E-01
  3.227113123991E-01  3.061249187070E-01  2.903045660469E-01  2.752151061600E-01
  2.608234211347E-01  2.470982640859E-01  2.340101129138E-01  2.215310362810E-01
  2.096345709859E-01  1.982956099330E-01  1.874902999330E-01  1.771959485959E-01
  1.673909396146E-01  1.580546557714E-01  1.491674090346E-01  1.407103771476E-01
  1.326655461499E-01  1.250156583046E-01  1.177441649374E-01  1.108351837335E-01
  1.042734600621E-01  9.804433193837E-02  9.213369825628E-02  8.652798995866E-02
  8.121414383662E-02  7.617957867731E-02  7.141217350382E-02  6.690024767447E-02
  6.263254263132E-02  5.859820510842E-02  5.478677162760E-02  5.118815414484E-02
  4.779262668825E-02  4.459081289385E-02  4.157367432710E-02  3.873249950423E-02
  3.605889353828E-02  3.354476834646E-02  3.118233336561E-02  2.896408673133E-02
  2.688280688375E-02  2.493154456893E-02  2.310361520934E-02  2.139259161971E-02
  1.979229704673E-02  1.829679851118E-02  1.690040043097E-02  1.559763850231E-02
  1.438327381473E-02  1.325228717386E-02  1.219987360423E-02  1.122143700325E-02
  1.031258491666E-02  9.469123405848E-03  8.687051978446E-03  7.962558555131E-03
  7.292014448165E-03  6.671969330443E-03  6.099146177525E-03  5.570436169324E-03
  5.082893542492E-03  4.633730388961E-03  4.220311400353E-03  3.840148561997E-03
  3.490895803879E-03  3.170343618980E-03  2.876413662028E-03  2.607153343702E-03
  2.360730436762E-03  2.135427711443E-03  1.929637617829E-03  1.741857032802E-03
  1.570682088613E-03  1.414803099277E-03  1.272999599781E-03  1.144135511724E-03
  1.027154447416E-03  9.210751627803E-04  8.249871676660E-04  7.380465003965E-04
  6.594716716450E-04  5.885397810391E-04  5.245828083021E-04  4.669840792494E-04
  4.151749056118E-04  3.686313964459E-04  3.268714378509E-04  2.894518368168E-04
  2.559656243097E-04  2.260395121300E-04  1.993314976621E-04  1.755286103559E-04
  1.543447936248E-04  1.355189157992E-04  1.188129038209E-04  1.040099934819E-04
  9.091309019078E-05  7.934323446748E-05  6.913816661444E-05  6.015098527269E-05
  5.224889483724E-05  4.531203696710E-05  3.923240167609E-05  3.391281372707E-05
  2.926599027063E-05  2.521366587039E-05  2.168578123854E-05  1.861973217072E-05
  1.595967531802E-05  1.365588756955E-05  1.166417594319E-05  9.945334996771E-06
  8.464648880404E-06  7.191435253283E-06  6.098628388467E-06  5.162398887021E-06
  4.361807520349E-06  3.678490817090E-06  3.096376109186E-06  2.601423850946E-06
  2.181395125194E-06  1.825642351735E-06  1.524921315182E-06  1.271222731233E-06
  1.057621672353E-06  8.781432749431E-07  7.276432500426E-07  6.017018177529E-07
  4.965297815681E-07  4.088855520350E-07  3.360020193451E-07  2.755222611673E-07
  2.254431549937E-07  1.840660432457E-07  1.499536742005E-07  1.218927123305E-07
  9.886117784223E-08  8.000023703419E-08  6.458982260995E-08  5.202761634925E-08
  4.181097566586E-08  3.352143070563E-08  2.681141992050E-08  2.139296967517E-08
  1.702805759617E-08  1.352043026161E-08  1.070867366238E-08  8.460359860346E-09
  6.667115605450E-09  5.240478635676E-09  4.108425050828E-09  3.212466846667E-09
  2.505232514003E-09  1.948455765854E-09  1.511308109060E-09  1.169020280944E-09
  9.017456705839E-10  6.936258707184E-10  5.320245821409E-10  4.069013290180E-10
  3.103009418535E-10  2.359386162836E-10  1.788636426409E-10  1.351876968433E-10
  1.018659531890E-10  7.652128221944E-11  5.730348329695E-11  4.277691711250E-11
  3.183108752106E-11  2.360970941035E-11  1.745461968278E-11  1.286156778718E-11
  9.445482892100E-12  6.913275896493E-12  5.042612388910E-12  3.665401321728E-12
  2.654995368924E-12  1.916302654868E-12  1.378174162747E-12  9.875636788080E-13
  7.050634638625E-13  5.015038370072E-13  3.553725403418E-13  2.508634512604E-13
  1.764066500528E-13  1.235652669001E-13  8.621074169149E-14  5.990860683534E-14
  4.146283839054E-14  2.857917245452E-14  1.961731928191E-14  1.340933925738E-14
  9.127058872432E-15  6.185685840199E-15  4.174033275648E-15  2.804220932154E-15
  1.875572134866E-15  1.248812435157E-15  8.277114128590E-16  5.460784773848E-16
  3.585926432611E-16  2.343653525311E-16  1.524426111335E-16  9.867683469325E-17
  6.356155579100E-17  4.073977412297E-17  2.598133747352E-17  1.648530043322E-17
  1.040634141441E-17  6.534888157974E-18  4.082158350590E-18  2.536445374579E-18
  1.567534808224E-18  9.634663853060E-19  5.889181564908E-19  3.579672029183E-19
  2.163574878402E-19  1.300202519402E-19  7.768368905558E-20  4.614206715595E-20
  2.724458541324E-20  1.598988232814E-20  0.000000000000E+00  0.000000000000E+00
  0.000000000000E+00  0.000000000000E+00  0.000000000000E+00  0.000000000000E+00
  0.000000000000E+00  0.000000000000E+00  0.000000000000E+00  0.000000000000E+00
  0.000000000000E+00  0.000000000000E+00  0.000000000000E+00  0.000000000000E+00
  0.000000000000E+00
</data>
</radfunc>
</valence-charge>
<pseudocore-charge matching-radius="0.702155239089"
 number-of-continuous-derivatives="4">
<annotation model-charge-form="Teter function with specified parameters" />
<radfunc>
<data npts="290">
  1.883090097265E+02  1.882919962384E+02  1.882411397212E+02  1.881563019772E+02
  1.880318359307E+02  1.878730564781E+02  1.876707501446E+02  1.874391689362E+02
  1.871788788538E+02  1.868754707260E+02  1.865336473144E+02  1.861623125778E+02
  1.857138169904E+02  1.852457414509E+02  1.847784849483E+02  1.842406916248E+02
  1.836219561351E+02  1.830360037072E+02  1.823779135360E+02  1.816391030759E+02
  1.808100488417E+02  1.800747796611E+02  1.792691219182E+02  1.783866922422E+02
  1.774206028249E+02  1.763634376098E+02  1.752072311883E+02  1.742699697344E+02
  1.732683975894E+02  1.721985174709E+02  1.710561475468E+02  1.698369233385E+02
  1.685363017904E+02  1.671495678948E+02  1.656718443087E+02  1.640981044446E+02
  1.624231895700E+02  1.606418304989E+02  1.593924812914E+02  1.580918455721E+02
  1.567383181841E+02  1.553302945264E+02  1.538661768854E+02  1.523443814850E+02
  1.507633463018E+02  1.491215396919E+02  1.474174698754E+02  1.456496953228E+02
  1.438168360853E+02  1.419175861080E+02  1.399507265590E+02  1.379151402042E+02
  1.358098268475E+02  1.336339198478E+02  1.313867037144E+02  1.290676327669E+02
  1.266763508321E+02  1.242127119307E+02  1.216768018867E+02  1.190689607674E+02
  1.163898060362E+02  1.136402562670E+02  1.108215552392E+02  1.079352961914E+02
  1.049834459727E+02  1.019683687872E+02  9.889284917864E+01  9.733341397407E+01
  9.576011385503E+01  9.417342456576E+01  9.257385190079E+01  9.096193221233E+01
  8.933823287150E+01  8.770335267833E+01  8.605792221573E+01  8.440260414202E+01
  8.273809341683E+01  8.106511745470E+01  7.938443620081E+01  7.769684212301E+01
  7.600316011424E+01  7.430424729950E+01  7.260099274123E+01  7.089431703716E+01
  6.918517180464E+01  6.747453904540E+01  6.576343038509E+01  6.405288618169E+01
  6.234397449742E+01  6.063778992880E+01  5.893545228997E+01  5.723810514466E+01
  5.554691418259E+01  5.386306543669E+01  5.218776333804E+01  5.052222860611E+01
  4.886769597242E+01  4.722541173705E+01  4.559663115753E+01  4.398261567152E+01
  4.238462995493E+01  4.080393881894E+01  3.924180395008E+01  3.769948049936E+01
  3.617821352730E+01  3.467923431375E+01  3.320375654236E+01  3.175297237177E+01
  3.032804840670E+01  2.893012158430E+01  2.756029499249E+01  2.621963363916E+01
  2.490916019245E+01  2.362985071461E+01  2.238263041312E+01  2.116836943484E+01
  1.998787873047E+01  1.884190601782E+01  1.773113187426E+01  1.665616598938E+01
  1.561754361033E+01  1.461572221295E+01  1.365107843214E+01  1.272390528562E+01
  1.183440972470E+01  1.098271054560E+01  1.016883669387E+01  9.392725993261E+00
  8.654224328967E+00  7.953085312637E+00  7.288970454396E+00  6.661449863742E+00
  6.070003497726E+00  5.514022970683E+00  4.992813935243E+00  4.505599039251E+00
  4.051521457740E+00  3.629648993162E+00  3.238978730791E+00  2.878442229607E+00
  2.546911222142E+00  2.243203789763E+00  1.966090972844E+00  1.714303768258E+00
  1.486540459819E+00  1.281474220775E+00  1.097760921342E+00  9.340470687781E-01
  7.889778026860E-01  6.612048643005E-01  5.493944556083E-01  4.522349023611E-01
  3.684440345437E-01  2.967761987342E-01  2.360288191409E-01  1.850484279870E-01
  1.427360913765E-01  1.080521638156E-01  8.002031315086E-02  5.773076774556E-02
  4.034274913205E-02  2.708606598462E-02  1.726185885403E-02  1.024249943575E-02
  5.470662918532E-03  2.457606850647E-03  7.807046076322E-04  8.029556781238E-05
  5.592710653451E-05  4.620751143128E-04  1.103439547356E-03  1.829919178425E-03
  2.531374920990E-03  3.132293597120E-03  3.586463628263E-03  3.871770752588E-03
  3.985215513908E-03  3.938245031844E-03  3.752479667351E-03  3.455900969002E-03
  3.079551156592E-03  2.654776898813E-03  2.211031880598E-03  1.774234302358E-03
  1.365657710060E-03  1.001317127158E-03  6.917980210855E-04  4.424637967678E-04
  2.539687747377E-04  1.229983559373E-04  4.315651166265E-05  5.922895704467E-06
  1.607592784125E-06  2.024043415225E-05  5.234338529325E-05  8.954803996441E-05
  1.250349139747E-04  1.537861202010E-04  1.726572030705E-04  1.802865382973E-04
  1.768709896458E-04  1.638438511820E-04  1.434950981620E-04  1.185744811871E-04
  9.191515487200E-05  6.610972840785E-05  4.326249470559E-05  2.483196058139E-05
  1.156760604098E-05  3.535024862507E-06  2.151631605430E-07  6.570510807542E-07
  3.659760419828E-06  7.958574697603E-06  1.239246554267E-05  1.603455167335E-05
  1.827361970927E-05  1.884215339670E-05  1.779369396022E-05  1.543880277083E-05
  1.225362182416E-05  8.777477680129E-06  5.515923875600E-06  2.863196011196E-06
  1.053733987002E-06  1.469510689874E-07  0.000000000000E+00  0.000000000000E+00
  0.000000000000E+00  0.000000000000E+00  0.000000000000E+00  0.000000000000E+00
  0.000000000000E+00  0.000000000000E+00  0.000000000000E+00  0.000000000000E+00
  0.000000000000E+00  0.000000000000E+00  0.000000000000E+00  0.000000000000E+00
  0.000000000000E+00  0.000000000000E+00  0.000000000000E+00  0.000000000000E+00
  0.000000000000E+00  0.000000000000E+00  0.000000000000E+00  0.000000000000E+00
  0.000000000000E+00  0.000000000000E+00  0.000000000000E+00  0.000000000000E+00
  0.000000000000E+00  0.000000000000E+00  0.000000000000E+00  0.000000000000E+00
  0.000000000000E+00  0.000000000000E+00  0.000000000000E+00  0.000000000000E+00
  0.000000000000E+00  0.000000000000E+00  0.000000000000E+00  0.000000000000E+00
  0.000000000000E+00  0.000000000000E+00  0.000000000000E+00  0.000000000000E+00
  0.000000000000E+00  0.000000000000E+00  0.000000000000E+00  0.000000000000E+00
  0.000000000000E+00  0.000000000000E+00  0.000000000000E+00  0.000000000000E+00
  0.000000000000E+00  0.000000000000E+00  0.000000000000E+00  0.000000000000E+00
  0.000000000000E+00  0.000000000000E+00  0.000000000000E+00  0.000000000000E+00
  0.000000000000E+00  0.000000000000E+00  0.000000000000E+00  0.000000000000E+00
  0.000000000000E+00  0.000000000000E+00
</data>
</radfunc>
</pseudocore-charge>
<semilocal-potentials set="scalar_relativistic">
<slps n="5" l="s" rc="1.40249998692" eref="-5.79929706178">
<radfunc>
<data npts="290">
 -1.950318975204E+01 -1.950494979909E+01 -1.951020949236E+01 -1.951897893554E+01
 -1.953183410770E+01 -1.954821508337E+01 -1.956905717069E+01 -1.959287475761E+01
 -1.961959352965E+01 -1.965066979560E+01 -1.968559252034E+01 -1.972342473629E+01
 -1.976897217380E+01 -1.981633830845E+01 -1.986344933730E+01 -1.991746015585E+01
 -1.997932061573E+01 -2.003762924227E+01 -2.010280004428E+01 -2.017556814084E+01
 -2.025672854683E+01 -2.032827173362E+01 -2.040619631954E+01 -2.049098923488E+01
 -2.058315800834E+01 -2.068322803814E+01 -2.079173890085E+01 -2.087899137974E+01
 -2.097153365922E+01 -2.106959818318E+01 -2.117341468833E+01 -2.128320786764E+01
 -2.139919470420E+01 -2.152158145450E+01 -2.165056026256E+01 -2.178630538961E+01
 -2.192896904792E+01 -2.207867683280E+01 -2.218244330935E+01 -2.228940201220E+01
 -2.239956386301E+01 -2.251293096174E+01 -2.262949577539E+01 -2.274924029840E+01
 -2.287213518709E+01 -2.299813887114E+01 -2.312719664525E+01 -2.325923974472E+01
 -2.339418440897E+01 -2.353193093740E+01 -2.367236274226E+01 -2.381534540370E+01
 -2.396072573214E+01 -2.410833084352E+01 -2.425796725298E+01 -2.440941999288E+01
 -2.456245176070E+01 -2.471680210282E+01 -2.487218663964E+01 -2.502829633785E+01
 -2.518479683509E+01 -2.534132782249E+01 -2.549750248997E+01 -2.565290703951E+01
 -2.580710027108E+01 -2.595961324621E+01 -2.610994903396E+01 -2.618413749465E+01
 -2.625758254458E+01 -2.633021413567E+01 -2.640196045611E+01 -2.647274793356E+01
 -2.654250124011E+01 -2.661114329899E+01 -2.667859529310E+01 -2.674477667541E+01
 -2.680960518148E+01 -2.687299684388E+01 -2.693486600888E+01 -2.699512535541E+01
 -2.705368591627E+01 -2.711045710192E+01 -2.716534672686E+01 -2.721826103866E+01
 -2.726910474993E+01 -2.731778107329E+01 -2.736419175947E+01 -2.740823713878E+01
 -2.744981616607E+01 -2.748882646941E+01 -2.752516440259E+01 -2.755872510180E+01
 -2.758940254650E+01 -2.761708962486E+01 -2.764167820390E+01 -2.766305920463E+01
 -2.768112268227E+01 -2.769575791200E+01 -2.770685348032E+01 -2.771429738229E+01
 -2.771797712493E+01 -2.771777983700E+01 -2.771359238533E+01 -2.770530149808E+01
 -2.769279389500E+01 -2.767595642497E+01 -2.765467621117E+01 -2.762884080380E+01
 -2.759833834091E+01 -2.756305771729E+01 -2.752288876168E+01 -2.747772242270E+01
 -2.742745096338E+01 -2.737196816490E+01 -2.731116953947E+01 -2.724495255291E+01
 -2.717321685700E+01 -2.709586453226E+01 -2.701280034140E+01 -2.692393199407E+01
 -2.682917042371E+01 -2.672843007704E+01 -2.662162921744E+01 -2.650869024333E+01
 -2.638954002297E+01 -2.626411024745E+01 -2.613233780411E+01 -2.599416517274E+01
 -2.584954084779E+01 -2.569841979006E+01 -2.554076391236E+01 -2.537654260408E+01
 -2.520573330093E+01 -2.502832210687E+01 -2.484430447676E+01 -2.465368596974E+01
 -2.445648308506E+01 -2.425272419417E+01 -2.404245058534E+01 -2.382571763984E+01
 -2.360259616220E+01 -2.337317389044E+01 -2.313755721715E+01 -2.289587315690E+01
 -2.264827160144E+01 -2.239492791061E+01 -2.213604589414E+01 -2.187186124742E+01