<?xml version="1.0" encoding="UTF-8" ?>
<psml version="1.1" energy_unit="hartree" length_unit="bohr"
 uuid="2ee5e1c0-1d65-11e8-69e3-352fcff9d5a6"
 xmlns="http://esl.cecam.org/PSML/ns/1.1">
<provenance creator="ONCVPSP-3.3.0+psml-3.3.0-73 (scalar-relativistic)"
 date="2018-03-01">
<annotation action="semilocal-pseudopotential-generation"
 action-cont="projectors-generation" />
<input-file name="oncvpsp-input">
<![CDATA[# atsym z nc nv iexc psfile
Cl 17 3 2 -116133 upf
# n l f
1 0 2.0
2 0 2.0
2 1 6.0
3 0 2.0
3 1 5.0
# lmax
2
# l rc ep ncon nbas qcut
0 1.55 0.0 4 9 6.8
1 1.35 0.0 4 8 8.0
2 1.75 0.1 4 9 6.8
# lloc lpopt rc5 dvloc0
4 5 1.3 0.0
# l nproj debl
0 2 2.0
1 2 2.0
2 2 1.5
# icmod fcfact rcfact
3 8.0 1.23
# epsh1 epsh2 depsh
-15.0 12.0 0.02
# rlmax drl
6.0 0.01
 0
]]>
</input-file>
</provenance>
<pseudo-atom-spec atomic-label="Cl" atomic-number="17" z-pseudo="7"
 flavor="Hamann&apos;s oncvpsp" relativity="scalar" spin-dft="no"
 core-corrections="yes">
<annotation pseudo-energy="-14.9502431049" />
<exchange-correlation>
<annotation oncvpsp-xc-code="-116133" oncvpsp-xc-type="libxc-interface" />
<libxc-info number-of-functionals="2">
<functional name="Perdew, Burke &amp; Ernzerhof SOL (GGA)" type="exchange"
 id="116" />
<functional name="Perdew, Burke &amp; Ernzerhof SOL (GGA)" type="correlation"
 id="133" />
</libxc-info>
</exchange-correlation>
<valence-configuration total-valence-charge="7">
<shell n="3" l="s" occupation="2" />
<shell n="3" l="p" occupation="5" />
</valence-configuration>
</pseudo-atom-spec>
<grid npts="457">
<annotation type="sampled from oncvpsp log grid"
 recipe="r(i:1..N) = r1*exp(a*(i-1)) + r=0; resampled"
 recipe-cont="r1: scale; a: step" scale="0.294117647059E-04"
 step="0.119285708653E-01" delta="0.500000000000E-02" rmax="44.0242521724" />
<grid-data>
  0.000000000000E+00  5.027151483922E-03  1.004134057245E-02  1.506361205528E-02
  2.029747125469E-02  2.546077814243E-02  3.081483684808E-02  3.598375947907E-02
  4.102911721421E-02  4.622716901962E-02  5.146617712438E-02  5.661949745917E-02
  6.228882096259E-02  6.771325607946E-02  7.273723248327E-02  7.813396217599E-02
  8.393110154036E-02  8.908928747130E-02  9.456448201537E-02  1.003761676926E-01
  1.065450243678E-01  1.117519790870E-01  1.172134025401E-01  1.229417308514E-01
  1.289500079103E-01  1.352519150732E-01  1.418618023172E-01  1.470303566364E-01
  1.523872206578E-01  1.579392552059E-01  1.636935710706E-01  1.696575381144E-01
  1.758387947112E-01  1.822452575295E-01  1.888851316716E-01  1.957669211822E-01
  2.028994399400E-01  2.102918229461E-01  2.153691087193E-01  2.205689804802E-01
  2.258943979449E-01  2.313483922889E-01  2.369340678723E-01  2.426546040070E-01
  2.485132567662E-01  2.545133608375E-01  2.606583314216E-01  2.669516661754E-01
  2.733969472036E-01  2.799978430969E-01  2.867581110206E-01  2.936815988531E-01
  3.007722473758E-01  3.080340925164E-01  3.154712676462E-01  3.230880059322E-01
  3.308886427474E-01  3.388776181379E-01  3.470594793502E-01  3.554388834197E-01
  3.640205998210E-01  3.728095131830E-01  3.818106260693E-01  3.910290618251E-01
  4.004700674939E-01  4.101390168034E-01  4.200414132251E-01  4.250819101838E-01
  4.301828931060E-01  4.353450878233E-01  4.405692288772E-01  4.458560596237E-01
  4.512063323392E-01  4.566208083273E-01  4.621002580272E-01  4.676454611235E-01
  4.732572066570E-01  4.789362931369E-01  4.846835286545E-01  4.904997309984E-01
  4.963857277704E-01  5.023423565036E-01  5.083704647817E-01  5.144709103590E-01
  5.206445612833E-01  5.268922960187E-01  5.332150035710E-01  5.396135836138E-01
  5.460889466172E-01  5.526420139766E-01  5.592737181443E-01  5.659850027620E-01
  5.727768227952E-01  5.796501446687E-01  5.866059464048E-01  5.936452177616E-01
  6.007689603747E-01  6.079781878992E-01  6.152739261540E-01  6.226572132679E-01
  6.301290998271E-01  6.376906490250E-01  6.453429368133E-01  6.530870520551E-01
  6.609240966797E-01  6.688551858399E-01  6.768814480700E-01  6.850040254468E-01
  6.932240737522E-01  7.015427626372E-01  7.099612757889E-01  7.184808110983E-01
  7.271025808315E-01  7.358278118015E-01  7.446577455431E-01  7.535936384896E-01
  7.626367621515E-01  7.717884032973E-01  7.810498641369E-01  7.904224625065E-01
  7.999075320566E-01  8.095064224413E-01  8.192204995106E-01  8.290511455047E-01
  8.389997592508E-01  8.490677563618E-01  8.592565694381E-01  8.695676482714E-01
  8.800024600506E-01  8.905624895712E-01  9.012492394461E-01  9.120642303194E-01
  9.230090010833E-01  9.340851090963E-01  9.452941304054E-01  9.566376599703E-01
  9.681173118899E-01  9.797347196326E-01  9.914915362682E-01  1.003389434703E+00
  1.015430107920E+00  1.027615269215E+00  1.039946652445E+00  1.052426012275E+00
  1.065055124422E+00  1.077835785915E+00  1.090769815346E+00  1.103859053130E+00
  1.117105361768E+00  1.130510626109E+00  1.144076753622E+00  1.157805674666E+00
  1.171699342762E+00  1.185759734875E+00  1.199988851694E+00  1.214388717914E+00
  1.228961382529E+00  1.243708919119E+00  1.258633426149E+00  1.273737027262E+00
  1.289021871590E+00  1.304490134049E+00  1.320144015657E+00  1.335985743845E+00
  1.352017572771E+00  1.368241783644E+00  1.384660685048E+00  1.401276613269E+00
  1.418091932628E+00  1.435109035820E+00  1.452330344249E+00  1.469758308380E+00
  1.487395408081E+00  1.505244152978E+00  1.523307082814E+00  1.541586767807E+00
  1.560085809021E+00  1.578806838729E+00  1.597752520794E+00  1.616925551044E+00
  1.636328657656E+00  1.655964601548E+00  1.675836176767E+00  1.695946210888E+00
  1.716297565418E+00  1.736893136203E+00  1.757735853838E+00  1.778828684084E+00
  1.800174628293E+00  1.821776723832E+00  1.843638044518E+00  1.865761701053E+00
  1.888150841465E+00  1.910808651563E+00  1.933738355382E+00  1.956943215646E+00
  1.980426534234E+00  2.004191652645E+00  2.028241952477E+00  2.052580855906E+00
  2.077211826177E+00  2.102138368091E+00  2.127364028508E+00  2.152892396850E+00
  2.178727105613E+00  2.204871830880E+00  2.231330292851E+00  2.258106256365E+00
  2.285203531441E+00  2.312625973818E+00  2.340377485504E+00  2.368462015330E+00
  2.396883559514E+00  2.425646162228E+00  2.454753916175E+00  2.484210963169E+00
  2.514021494727E+00  2.544189752664E+00  2.574720029696E+00  2.605616670052E+00
  2.636884070093E+00  2.668526678934E+00  2.700548999081E+00  2.732955587070E+00
  2.765751054115E+00  2.798940066765E+00  2.832527347566E+00  2.866517675736E+00
  2.900915887845E+00  2.935726878499E+00  2.970955601041E+00  3.006607068254E+00
  3.042686353073E+00  3.079198589310E+00  3.116148972382E+00  3.153542760050E+00
  3.191385273171E+00  3.229681896449E+00  3.268438079206E+00  3.307659336157E+00
  3.347351248191E+00  3.387519463169E+00  3.428169696727E+00  3.469307733088E+00
  3.510939425885E+00  3.553070698995E+00  3.595707547383E+00  3.638856037952E+00
  3.682522310407E+00  3.726712578132E+00  3.771433129070E+00  3.816690326619E+00
  3.862490610538E+00  3.908840497864E+00  3.955746583839E+00  4.003215542845E+00
  4.051254129359E+00  4.099869178911E+00  4.149067609058E+00  4.198856420367E+00
  4.249242697411E+00  4.300233609780E+00  4.351836413098E+00  4.404058450055E+00
  4.456907151455E+00  4.510390037273E+00  4.564514717720E+00  4.619288894333E+00
  4.674720361065E+00  4.730817005398E+00  4.787586809462E+00  4.845037851176E+00
  4.903178305390E+00  4.962016445055E+00  5.021560642395E+00  5.081819370104E+00
  5.142801202545E+00  5.204514816976E+00  5.266968994780E+00  5.330172622717E+00
  5.394134694190E+00  5.458864310520E+00  5.524370682246E+00  5.590663130433E+00
  5.657751087998E+00  5.725644101054E+00  5.794351830267E+00  5.863884052230E+00
  5.934250660857E+00  6.005461668787E+00  6.077527208813E+00  6.150457535318E+00
  6.224263025742E+00  6.298954182051E+00  6.374541632236E+00  6.451036131823E+00
  6.528448565404E+00  6.606789948189E+00  6.686071427568E+00  6.766304284698E+00
  6.847499936115E+00  6.929669935348E+00  7.012825974572E+00  7.096979886267E+00
  7.182143644902E+00  7.268329368641E+00  7.355549321065E+00  7.443815912918E+00
  7.533141703873E+00  7.623539404319E+00  7.715021877171E+00  7.807602139697E+00
  7.901293365373E+00  7.996108885758E+00  8.092062192387E+00  8.189166938696E+00
  8.287436941960E+00  8.386886185263E+00  8.487528819487E+00  8.589379165320E+00
  8.692451715304E+00  8.796761135888E+00  8.902322269519E+00  9.009150136753E+00
  9.117259938394E+00  9.226667057655E+00  9.337387062346E+00  9.449435707095E+00
  9.562828935580E+00  9.677582882807E+00  9.793713877400E+00  9.911238443929E+00
  1.003017330526E+01  1.015053538492E+01  1.027234180954E+01  1.039560991125E+01
  1.052035723019E+01  1.064660151695E+01  1.077436073515E+01  1.090365306398E+01
  1.103449690074E+01  1.116691086355E+01  1.130091379391E+01  1.143652475944E+01
  1.157376305655E+01  1.171264821323E+01  1.185319999179E+01  1.199543839169E+01
  1.213938365239E+01  1.228505625622E+01  1.243247693130E+01  1.258166665447E+01
  1.273264665433E+01  1.288543841418E+01  1.304006367515E+01  1.319654443925E+01
  1.335490297252E+01  1.351516180819E+01  1.367734374989E+01  1.384147187489E+01
  1.400756953739E+01  1.417566037184E+01  1.434576829630E+01  1.451791751585E+01
  1.469213252604E+01  1.486843811636E+01  1.504685937375E+01  1.522742168624E+01
  1.541015074647E+01  1.559507255543E+01  1.578221342610E+01  1.597159998721E+01
  1.616325918706E+01  1.635721829730E+01  1.655350491687E+01  1.675214697587E+01
  1.695317273958E+01  1.715661081246E+01  1.736249014220E+01  1.757084002391E+01
  1.778169010420E+01  1.799507038545E+01  1.821101123007E+01  1.842954336484E+01
  1.865069788521E+01  1.887450625984E+01  1.910100033495E+01  1.933021233897E+01
  1.956217488704E+01  1.979692098569E+01  2.003448403751E+01  2.027489784596E+01
  2.051819662012E+01  2.076441497956E+01  2.101358795931E+01  2.126575101482E+01
  2.152094002700E+01  2.177919130732E+01  2.204054160301E+01  2.230502810225E+01
  2.257268843948E+01  2.284356070075E+01  2.311768342916E+01  2.339509563031E+01
  2.367583677787E+01  2.395994681921E+01  2.424746618104E+01  2.453843577521E+01
  2.483289700451E+01  2.513089176857E+01  2.543246246979E+01  2.573765201943E+01
  2.604650384366E+01  2.635906188978E+01  2.667537063246E+01  2.699547508005E+01
  2.731942078101E+01  2.764725383038E+01  2.797902087635E+01  2.831476912686E+01
  2.865454635639E+01  2.899840091266E+01  2.934638172361E+01  2.969853830430E+01
  3.005492076395E+01  3.041557981312E+01  3.078056677087E+01  3.114993357213E+01
  3.152373277499E+01  3.190201756829E+01  3.228484177911E+01  3.267225988046E+01
  3.306432699902E+01  3.346109892301E+01  3.386263211009E+01  3.426898369541E+01
  3.468021149976E+01  3.509637403775E+01  3.551753052621E+01  3.594374089252E+01
  3.637506578323E+01  3.681156657263E+01  3.725330537150E+01  3.770034503596E+01
  3.815274917639E+01  3.861058216651E+01  3.907390915250E+01  3.954279606233E+01
  4.001730961508E+01  4.049751733046E+01  4.098348753843E+01  4.147528938889E+01
  4.197299286156E+01  4.247666877590E+01  4.298638880121E+01  4.350222546682E+01
  4.402425217242E+01
</grid-data>
</grid>
<valence-charge total-charge="7" is-unscreening-charge="yes"
 rescaled-to-z-pseudo="no">
<radfunc>
<data npts="457">
  5.793715018889E-02  5.807097794211E-02  5.847112240518E-02  5.913899621163E-02
  6.011965692487E-02  6.137208467470E-02  6.297014387101E-02  6.480261554534E-02
  6.686629326219E-02  6.927722652212E-02  7.200038783699E-02  7.496704087212E-02
  7.856181308833E-02  8.232716714671E-02  8.609986544364E-02  9.045936350083E-02
  9.549793522315E-02  1.002922355416E-01  1.057031752056E-01  1.118112121677E-01
  1.187075617415E-01  1.248612982681E-01  1.316448130050E-01  1.391237483163E-01
  1.473707735314E-01  1.564663560650E-01  1.664996153145E-01  1.746989037993E-01
  1.835264645358E-01  1.930314477950E-01  2.032669208413E-01  2.142901736896E-01
  2.261630442386E-01  2.389522625639E-01  2.527298136765E-01  2.675733174236E-01
  2.835664234183E-01  3.007992178732E-01  3.130240390253E-01  3.258732659047E-01
  3.393788878182E-01  3.535744371961E-01  3.684950410869E-01  3.841774701209E-01
  4.006601840297E-01  4.179833726622E-01  4.361889912747E-01  4.553207886861E-01
  4.754243266877E-01  4.965469888665E-01  5.187379767520E-01  5.420482909170E-01
  5.665306943598E-01  5.922396551613E-01  6.192312650489E-01  6.475631301048E-01
  6.772942294388E-01  7.084847371888E-01  7.411958027397E-01  7.754892835455E-01
  8.114274244220E-01  8.490724766427E-01  8.884862496390E-01  9.297295875816E-01
  9.728617626319E-01  1.017939776210E+00  1.065017559271E+00  1.089322156678E+00
  1.114145062353E+00  1.139491729297E+00  1.165367226080E+00  1.191776197492E+00
  1.218722822978E+00  1.246210772804E+00  1.274243161890E+00  1.302822501271E+00
  1.331950647131E+00  1.361628747389E+00  1.391857185805E+00  1.422635523602E+00
  1.453962438595E+00  1.485835661853E+00  1.518251911928E+00  1.551206826693E+00
  1.584694892874E+00  1.618709373377E+00  1.653242232521E+00  1.688284059346E+00
  1.723823989175E+00  1.759849623655E+00  1.796346949525E+00  1.833300256434E+00
  1.870692054120E+00  1.908502989372E+00  1.946711763184E+00  1.985295048613E+00
  2.024227409871E+00  2.063481223254E+00  2.103026600566E+00  2.142831315748E+00
  2.182860735479E+00  2.223077754598E+00  2.263442737196E+00  2.303913464361E+00
  2.344445089525E+00  2.384990102478E+00  2.425498303098E+00  2.465916785921E+00
  2.506189936676E+00  2.546259441911E+00  2.586064312868E+00  2.625540924726E+00
  2.664623072294E+00  2.703242043230E+00  2.741326709733E+00  2.778803639635E+00
  2.815597227663E+00  2.851629847542E+00  2.886822025441E+00  2.921092635119E+00
  2.954359114910E+00  2.986537706480E+00  3.017543715090E+00  3.047291790814E+00
  3.075696229945E+00  3.102671295538E+00  3.128131555801E+00  3.151992238775E+00
  3.174169601497E+00  3.194581311627E+00  3.213146839297E+00  3.229787856782E+00
  3.244428643439E+00  3.256996493279E+00  3.267422122480E+00  3.275640074152E+00
  3.281589117721E+00  3.285212640402E+00  3.286459028383E+00  3.285282035550E+00
  3.281641137789E+00  3.275501871185E+00  3.266836152673E+00  3.255622581964E+00
  3.241846723783E+00  3.225501369647E+00  3.206586778491E+00  3.185110895495E+00
  3.161089548352E+00  3.134546620008E+00  3.105514196569E+00  3.074032688575E+00
  3.040150923257E+00  3.003926204674E+00  2.965424337846E+00  2.924719612193E+00
  2.881894738775E+00  2.837040735145E+00  2.790256751079E+00  2.741649828132E+00
  2.691334586039E+00  2.639432829395E+00  2.586073068971E+00  2.531389953510E+00
  2.475523609860E+00  2.418618601909E+00  2.360821593184E+00  2.302278290007E+00
  2.243132234638E+00  2.183524436367E+00  2.123592371399E+00  2.063469257477E+00
  2.003283337373E+00  1.943157232821E+00  1.883207381696E+00  1.823543573976E+00
  1.764268599991E+00  1.705478154421E+00  1.647261411920E+00  1.589701984387E+00
  1.532878075298E+00  1.476862281190E+00  1.421721699717E+00  1.367517955932E+00
  1.314307266136E+00  1.262140519490E+00  1.211063377601E+00  1.161116390598E+00
  1.112335128231E+00  1.064750324491E+00  1.018388034268E+00  9.732698005832E-01
  9.294128309309E-01  8.868301813403E-01  8.455309467639E-01  8.055204564984E-01
  7.668004732660E-01  7.293693949415E-01  6.932224575826E-01  6.583519387786E-01
  6.247473602886E-01  5.923956890316E-01  5.612815355607E-01  5.313873492324E-01
  5.026936093513E-01  4.751790116459E-01  4.488206495033E-01  4.235941894598E-01
  3.994740405248E-01  3.764335169155E-01  3.544449940135E-01  3.334800571803E-01
  3.135096433097E-01  2.945041749721E-01  2.764336870733E-01  2.592679459946E-01
  2.429765612288E-01  2.275290895656E-01  2.128951319184E-01  1.990444229187E-01
  1.859469134344E-01  1.735728461965E-01  1.618928247428E-01  1.508778759054E-01
  1.404995060906E-01  1.307297516096E-01  1.215412233313E-01  1.129071459362E-01
  1.048013920546E-01  9.719851157310E-02  9.007375639532E-02  8.340310093445E-02
  7.716325861373E-02  7.133169464022E-02  6.588663530861E-02  6.080707408063E-02
  5.607277467418E-02  5.166427138376E-02  4.756286684190E-02  4.375062741915E-02
  4.021037644930E-02  3.692568545587E-02  3.388086354704E-02  3.106094513771E-02
  2.845167615108E-02  2.603949884573E-02  2.381153540998E-02  2.175557046087E-02
  1.986003258201E-02  1.811397503137E-02  1.650705574717E-02  1.502951677717E-02
  1.367216325325E-02  1.242634202980E-02  1.128392010009E-02  1.023726290012E-02
  9.279212604322E-03  8.403066511438E-03  7.602555612440E-03  6.871823425647E-03
  6.205405176719E-03  5.598207393711E-03  5.045487979575E-03  4.542836816660E-03
  4.086156949936E-03  3.671646387970E-03  3.295780553208E-03  2.955295405945E-03
  2.647171259535E-03  2.368617298040E-03  2.117056801574E-03  1.890113079247E-03
  1.685596104698E-03  1.501489844950E-03  1.335940269524E-03  1.187244023561E-03
  1.053837746030E-03  9.342880119315E-04  8.272818757307E-04  7.316179920496E-04
  6.461982888030E-04  5.700201675356E-04  5.021692055810E-04  4.418123348158E-04
  3.881914721569E-04  3.406175775207E-04  2.984651156672E-04  2.611668991773E-04
  2.282092906987E-04  1.991277435380E-04  1.735026606329E-04  1.509555529003E-04
  1.311454788988E-04  1.137657486664E-04  9.854087547329E-05  8.522376007999E-05
  7.359309288876E-05  6.345096013957E-05  5.462064101824E-05  4.694458322364E-05
  4.028254518262E-05  3.450989370901E-05  2.951604648078E-05  2.520304925939E-05
  2.148427830123E-05  1.828325891503E-05  1.553259160373E-05  1.317297769613E-05
  1.115233682484E-05  9.425009042393E-06  7.951034789695E-06  6.695506338388E-06
  5.627984723685E-06  4.721976565197E-06  3.954465541159E-06  3.305493635656E-06
  2.757787618881E-06  2.296426546872E-06  1.908546379344E-06  1.583078111934E-06
  1.310516102339E-06  1.082713538252E-06  8.927022487723E-07  7.345343001042E-07
  6.031430409969E-07  4.942214737243E-07  4.041160227837E-07  3.297339561978E-07
  2.684628837937E-07  2.181009135408E-07  1.767961914771E-07  1.429946834796E-07
  1.153951787111E-07  9.291060559274E-08  7.463485221865E-08  5.981437485199E-08
  4.782396112975E-08  3.814608946428E-08  3.035339345099E-08  2.409380045155E-08
  1.907796747757E-08  1.506868558578E-08  1.187196672124E-08  9.329564795943E-09
  7.312716219835E-09  5.716914539939E-09  4.457559688078E-09  3.466344960565E-09
  2.688264595594E-09  2.079141991203E-09  1.603593506653E-09  1.233355675654E-09
  9.459147695592E-10  7.233871978575E-10  5.516074161952E-10  4.193870024799E-10
  3.179145147685E-10  2.402707986511E-10  1.810386890835E-10  1.359896600290E-10
  1.018330097768E-10  7.601571349821E-11  5.656319999716E-11  4.195307972653E-11
  3.101532052474E-11  2.285358324806E-11  1.678343196567E-11  1.228395726904E-11
  8.960026047885E-12  6.512921886215E-12  4.717588266846E-12  3.405049942516E-12
  2.448881174400E-12  1.754825637143E-12  1.252862131374E-12  8.911615384255E-13
  6.315008998337E-13  4.457960398064E-13  3.134896407835E-13  2.195911100830E-13
  1.532111786116E-13  1.064705771125E-13  7.369046204786E-14  5.079421724261E-14
  3.486720449512E-14  2.383406552280E-14  1.622315369243E-14  1.099527920535E-14
  7.419739620345E-15  4.984935951405E-15  3.334232552009E-15  2.220108185116E-15
  1.471534882705E-15  9.708698639718E-16  6.375598643361E-16  4.167018067652E-16
  2.710495266879E-16  1.754544588256E-16  1.130174154945E-16  7.243733519001E-17
  0.000000000000E+00  0.000000000000E+00  0.000000000000E+00  0.000000000000E+00
  0.000000000000E+00  0.000000000000E+00  0.000000000000E+00  0.000000000000E+00
  0.000000000000E+00  0.000000000000E+00  0.000000000000E+00  0.000000000000E+00
  0.000000000000E+00  0.000000000000E+00  0.000000000000E+00  0.000000000000E+00
  0.000000000000E+00  0.000000000000E+00  0.000000000000E+00  0.000000000000E+00
  0.000000000000E+00  0.000000000000E+00  0.000000000000E+00  0.000000000000E+00
  0.000000000000E+00  0.000000000000E+00  0.000000000000E+00  0.000000000000E+00
  0.000000000000E+00  0.000000000000E+00  0.000000000000E+00  0.000000000000E+00
  0.000000000000E+00  0.000000000000E+00  0.000000000000E+00  0.000000000000E+00
  0.000000000000E+00  0.000000000000E+00  0.000000000000E+00  0.000000000000E+00
  0.000000000000E+00  0.000000000000E+00  0.000000000000E+00  0.000000000000E+00
  0.000000000000E+00  0.000000000000E+00  0.000000000000E+00  0.000000000000E+00
  0.000000000000E+00  0.000000000000E+00  0.000000000000E+00  0.000000000000E+00
  0.000000000000E+00  0.000000000000E+00  0.000000000000E+00  0.000000000000E+00
  0.000000000000E+00
</data>
</radfunc>
</valence-charge>
<pseudocore-charge matching-radius="0.819220499511"
 number-of-continuous-derivatives="4">
<annotation model-charge-form="Teter function with specified parameters" />
<radfunc>
<data npts="290">
  2.604944653106E+01  2.604739806303E+01  2.604127467263E+01  2.603105931803E+01
  2.601607128797E+01  2.599694953634E+01  2.597258301554E+01  2.594468660585E+01
  2.591332691256E+01  2.587676568193E+01  2.583556670350E+01  2.579080041962E+01
  2.573671754107E+01  2.568025664746E+01  2.562387726154E+01  2.555896542376E+01
  2.548425534855E+01  2.541347550168E+01  2.533394896517E+01  2.524462625135E+01
  2.514434038247E+01  2.505535235523E+01  2.495779459186E+01  2.485087922281E+01
  2.473375379258E+01  2.460549765016E+01  2.446511853043E+01  2.435123951476E+01
  2.422946413806E+01  2.409928880777E+01  2.396018457178E+01  2.381159693164E+01
  2.365294586784E+01  2.348362611959E+01  2.330300776754E+01  2.311043717343E+01
  2.290523833731E+01  2.268671473976E+01  2.253327744716E+01  2.237338512046E+01
  2.220681963334E+01  2.203336089398E+01  2.185278746776E+01  2.166487728116E+01
  2.146940841272E+01  2.126615997769E+01  2.105491311259E+01  2.083545206613E+01
  2.060756540314E+01  2.037104732756E+01  2.012569913079E+01  1.987133077116E+01
  1.960776258970E+01  1.933482716703E+01  1.905237132501E+01  1.876025827606E+01
  1.845836992155E+01  1.814660929920E+01  1.782490317756E+01  1.749320479340E+01
  1.715149672535E+01  1.679979389415E+01  1.643814667656E+01  1.606664411596E+01
  1.568541720886E+01  1.529464224132E+01  1.489454414430E+01  1.469108333693E+01
  1.448539983139E+01  1.427753690200E+01  1.406754147604E+01  1.385546422939E+01
  1.364135967900E+01  1.342528627188E+01  1.320730646996E+01  1.298748683029E+01
  1.276589808002E+01  1.254261518546E+01  1.231771741469E+01  1.209128839289E+01
  1.186341614982E+01  1.163419315873E+01  1.140371636581E+01  1.117208720957E+01
  1.093941162926E+01  1.070580006164E+01  1.047136742509E+01  1.023623309049E+01
  1.000052083780E+01  9.764358797656E+00  9.527879377135E+00  9.291219168777E+00
  9.054518842184E+00  8.817923017322E+00  8.581580118811E+00  8.345642210464E+00
  8.110264809410E+00  7.875606679163E+00  7.641829601085E+00  7.409098123741E+00
  7.177579289733E+00  6.947442339703E+00  6.718858393268E+00  6.492000106806E+00
  6.267041308089E+00  6.044156607939E+00  5.823520989215E+00  5.605309373583E+00
  5.389696166730E+00  5.176854782839E+00  4.966957149351E+00  4.760173193238E+00
  4.556670310235E+00  4.356612818703E+00  4.160161400019E+00  3.967472527636E+00
  3.778697887195E+00  3.593983790325E+00  3.413470584984E+00  3.237292065489E+00
  3.065574885558E+00  2.898437977979E+00  2.735991984686E+00  2.578338701271E+00
  2.425570540109E+00  2.277770016462E+00  2.135009262056E+00  1.997349570711E+00
  1.864840980704E+00  1.737521898545E+00  1.615418768844E+00  1.498545794866E+00
  1.386904714278E+00  1.280484634363E+00  1.179261930807E+00  1.083200213786E+00
  9.922503647729E-01  9.063506470023E-01  8.254268920411E-01  7.493927643372E-01
  6.781501049620E-01  6.115893550578E-01  5.495900587267E-01  4.920214442672E-01
  4.387430817863E-01  3.896056142948E-01  3.444515584424E-01  3.031161700809E-01
  2.654283688685E-01  2.312117151643E-01  2.002854315233E-01  1.724654602105E-01
  1.475655473206E-01  1.253983433468E-01  1.057765093935E-01  8.851381771362E-02
  7.342623487070E-02  6.033297561187E-02  4.905751550211E-02  3.942855052648E-02
  3.128089223025E-02  2.445628754330E-02  1.880415323052E-02  1.418221592297E-02
  1.045704991014E-02  7.504506300897E-03  5.210028770999E-03  3.468852886626E-03
  2.186087894944E-03  1.276681869558E-03  6.652731489047E-04  2.859330632020E-04
  8.180696001874E-05  4.662456937397E-06  1.435561749220E-05  7.822730948491E-05
  1.704433107877E-04  2.712927289280E-04  3.664599554285E-04  4.462856506818E-04
  5.050321270290E-04  5.401679557749E-04  5.516856708221E-04  5.414650948914E-04
  5.126931066277E-04  4.693486462461E-04  4.157594861673E-04  3.562348467267E-04
  2.947754015679E-04  2.348596864336E-04  1.793034962953E-04  1.301866262597E-04
  8.883937344257E-05  5.587965200762E-05  3.129044898831E-05  1.452671230804E-05
  4.640639612358E-06  4.147265519795E-07  4.928084398582E-07  3.500635368550E-06
  8.149178592048E-06  1.331577462425E-05  1.810025649625E-05  2.185527322353E-05
  2.419193187229E-05  2.496359224696E-05  2.423199883531E-05  2.222086908065E-05
  1.926252295904E-05  1.574312332381E-05  1.205162407257E-05  8.536654799937E-06
  5.474399211855E-06  3.049167873037E-06  1.346956128394E-06  3.609502104672E-07
  6.823336369344E-09  1.448510772885E-07  6.054401741233E-07  1.214635017404E-06
  1.816524483574E-06  2.290158905519E-06  2.559506177437E-06  2.596005297726E-06
  2.414282072879E-06  2.062447987642E-06  1.609004370158E-06  1.128651313541E-06
  6.892317815928E-07  3.416528929584E-07  1.139914434823E-07  1.021749951466E-08
  0.000000000000E+00  0.000000000000E+00  0.000000000000E+00  0.000000000000E+00
  0.000000000000E+00  0.000000000000E+00  0.000000000000E+00  0.000000000000E+00
  0.000000000000E+00  0.000000000000E+00  0.000000000000E+00  0.000000000000E+00
  0.000000000000E+00  0.000000000000E+00  0.000000000000E+00  0.000000000000E+00
  0.000000000000E+00  0.000000000000E+00  0.000000000000E+00  0.000000000000E+00
  0.000000000000E+00  0.000000000000E+00  0.000000000000E+00  0.000000000000E+00
  0.000000000000E+00  0.000000000000E+00  0.000000000000E+00  0.000000000000E+00
  0.000000000000E+00  0.000000000000E+00  0.000000000000E+00  0.000000000000E+00
  0.000000000000E+00  0.000000000000E+00  0.000000000000E+00  0.000000000000E+00
  0.000000000000E+00  0.000000000000E+00  0.000000000000E+00  0.000000000000E+00
  0.000000000000E+00  0.000000000000E+00  0.000000000000E+00  0.000000000000E+00
  0.000000000000E+00  0.000000000000E+00  0.000000000000E+00  0.000000000000E+00
  0.000000000000E+00  0.000000000000E+00  0.000000000000E+00  0.000000000000E+00
  0.000000000000E+00  0.000000000000E+00  0.000000000000E+00  0.000000000000E+00
  0.000000000000E+00  0.000000000000E+00
</data>
</radfunc>
</pseudocore-charge>
<semilocal-potentials set="scalar_relativistic">
<slps n="3" l="s" rc="1.56008580902" eref="-0.757711738515">
<radfunc>
<data npts="290">
  2.847462916116E+01  2.846221894931E+01  2.842516239287E+01  2.836347831126E+01
  2.827328060999E+01  2.815873074724E+01  2.801360739557E+01  2.784861307370E+01
  2.766458796856E+01  2.745195663293E+01  2.721479207754E+01  2.695997557320E+01
  2.665606166511E+01  2.634328726410E+01  2.603545743394E+01  2.568647771063E+01
  2.529184940937E+01  2.492474091159E+01  2.451989869897E+01  2.407453981273E+01
  2.358593315150E+01  2.316215009799E+01  2.270776945238E+01  2.222166040606E+01
  2.170284052408E+01  2.115051194513E+01  2.056409932188E+01  2.010172234339E+01
  1.961996663999E+01  1.911891221463E+01  1.859875095482E+01  1.805979412779E+01
  1.750247887164E+01  1.692737343390E+01  1.633518091157E+01  1.572674125813E+01
  1.510303134466E+01  1.446516289369E+01  1.403265967284E+01  1.359481231612E+01
  1.315204318016E+01  1.270479663438E+01  1.225353750770E+01  1.179874933917E+01
  1.134093244315E+01  1.088060180229E+01  1.041828480461E+01  9.954518843772E+00
  9.489848804351E+00  9.024824456198E+00  8.559997784396E+00  8.095920283075E+00
  7.633140243061E+00  7.172200064539E+00  6.713633626855E+00  6.257963748101E+00
  5.805699767291E+00  5.357335281711E+00  4.913346071428E+00  4.474188241974E+00
  4.040296614843E+00  3.612083393734E+00  3.189937132332E+00  2.774222026873E+00
  2.365277553796E+00  1.963418469295E+00  1.568935183606E+00  1.374543739856E+00
  1.182094518272E+00  9.916173733814E-01  8.031408493189E-01  6.166922363691E-01
  4.322976332318E-01  2.499820148594E-01  6.976930567481E-02 -1.083175420583E-01
 -2.842564649795E-01 -4.580262007910E-01 -6.296061961897E-01 -7.989765109737E-01
 -9.661177187296E-01 -1.131010804675E+00 -1.293637061112E+00 -1.453977981097E+00
 -1.612015151098E+00 -1.767730143184E+00 -1.921104407591E+00 -2.072119166497E+00
 -2.220755309840E+00 -2.366993294129E+00 -2.510813045217E+00 -2.652193866067E+00
 -2.791114350598E+00 -2.927552304704E+00 -3.061484675619E+00 -3.192887490792E+00
 -3.321735807487E+00 -3.448003674309E+00 -3.571664105876E+00 -3.692689071852E+00
 -3.811049501519E+00 -3.926715305042E+00 -4.039655412550E+00 -4.149837832080E+00
 -4.257229727374E+00 -4.361797516432E+00 -4.463506991659E+00 -4.562323462307E+00
 -4.658211919847E+00 -4.751137226777E+00 -4.841064329254E+00 -4.927958493823E+00
 -5.011785568369E+00 -5.092512267258E+00 -5.170106480465E+00 -5.244537606191E+00
 -5.315776906222E+00 -5.383797882771E+00 -5.448576675010E+00 -5.510092472678E+00
 -5.568327943111E+00 -5.623269666698E+00 -5.674908574064E+00 -5.723240376261E+00
 -5.768265976856E+00 -5.809991852181E+00 -5.848430383268E+00 -5.883600120319E+00
 -5.915525958334E+00 -5.944239200970E+00 -5.969777489422E+00 -5.992184574304E+00
 -6.011509911706E+00 -6.027808069836E+00 -6.041137940129E+00 -6.051561755945E+00
 -6.059143932684E+00 -6.063949754334E+00 -6.066043942380E+00 -6.065489152549E+00
 -6.062344452278E+00 -6.056663836477E+00 -6.048494840964E+00 -6.037877312034E+00
 -6.024842387647E+00 -6.009411741327E+00 -5.991597134989E+00 -5.971400322043E+00
 -5.948813337698E+00 -5.923819209293E+00 -5.896393115310E+00 -5.866504016773E+00
 -5.834116778193E+00 -5.799194786204E+00 -5.761703061902E+00 -5.721611847153E+00
 -5.678900625688E+00 -5.633562516695E+00 -5.585608952422E+00 -5.535074522605E+00