<?xml version="1.0" encoding="UTF-8" ?>
<psml version="1.1" energy_unit="hartree" length_unit="bohr"
 uuid="5cac3720-1d66-11e8-7f74-4062f53f2d7c"
 xmlns="http://esl.cecam.org/PSML/ns/1.1">
<provenance creator="ONCVPSP-3.3.0+psml-3.3.0-73 (scalar-relativistic)"
 date="2018-03-01">
<annotation action="semilocal-pseudopotential-generation"
 action-cont="projectors-generation" />
<input-file name="oncvpsp-input">
<![CDATA[# atsym z nc nv iexc psfile
Hg 80 10 4 -116133 upf
# n l f
1 0 2.0
2 0 2.0
2 1 6.0
3 0 2.0
3 1 6.0
3 2 10.0
4 0 2.0
4 1 6.0
4 2 10.0
4 3 14.0
5 0 2.0
5 1 6.0
5 2 10.0
6 0 2.0
# lmax
3
# l rc ep ncon nbas qcut
0 1.4 0.0 4 8 9.0
1 1.45 0.0 4 8 9.0
2 1.4 0.0 4 8 9.0
3 1.6 0.1 4 8 6.8
# lloc lpopt rc5 dvloc0
4 5 1.4 0.0
# l nproj debl
0 2 1.0
1 2 2.8
2 2 1.8
3 1 1.5
# icmod fcfact rcfact
3 5.0 1.37
# epsh1 epsh2 depsh
-12.0 12.0 0.02
# rlmax drl
6.0 0.01
 0
]]>
</input-file>
</provenance>
<pseudo-atom-spec atomic-label="Hg" atomic-number="80" z-pseudo="20"
 flavor="Hamann&apos;s oncvpsp" relativity="scalar" spin-dft="no"
 core-corrections="yes">
<annotation pseudo-energy="-155.494724158" />
<exchange-correlation>
<annotation oncvpsp-xc-code="-116133" oncvpsp-xc-type="libxc-interface" />
<libxc-info number-of-functionals="2">
<functional name="Perdew, Burke &amp; Ernzerhof SOL (GGA)" type="exchange"
 id="116" />
<functional name="Perdew, Burke &amp; Ernzerhof SOL (GGA)" type="correlation"
 id="133" />
</libxc-info>
</exchange-correlation>
<valence-configuration total-valence-charge="20">
<shell n="5" l="s" occupation="2" />
<shell n="5" l="p" occupation="6" />
<shell n="5" l="d" occupation="10" />
<shell n="6" l="s" occupation="2" />
</valence-configuration>
</pseudo-atom-spec>
<grid npts="457">
<annotation type="sampled from oncvpsp log grid"
 recipe="r(i:1..N) = r1*exp(a*(i-1)) + r=0; resampled"
 recipe-cont="r1: scale; a: step" scale="0.625000000000E-05"
 step="0.119285708653E-01" delta="0.500000000000E-02" rmax="44.1080184274" />
<grid-data>
  0.000000000000E+00  5.036716794685E-03  1.006044653004E-02  1.509227403831E-02
  2.009495242827E-02  2.520674221625E-02  3.050738058830E-02  3.562473008824E-02
  4.110718453678E-02  4.631512683008E-02  5.156410335150E-02  5.672722906228E-02
  6.240733975628E-02  6.784209610731E-02  7.287563178056E-02  7.828262999150E-02
  8.409079974550E-02  8.925880031034E-02  9.474441267004E-02  1.005671564146E-01
  1.067477507570E-01  1.119646129040E-01  1.174364279700E-01  1.231756557421E-01
  1.291953649286E-01  1.355092629178E-01  1.421317269910E-01  1.473101156723E-01
  1.526771723584E-01  1.582397709279E-01  1.640050357007E-01  1.699803505620E-01
  1.761733684197E-01  1.825920210056E-01  1.892445290339E-01  1.961394127302E-01
  2.032855027437E-01  2.106919514570E-01  2.157788979330E-01  2.209886636447E-01
  2.263242139397E-01  2.317885857611E-01  2.373848893757E-01  2.431163101448E-01
  2.489861103369E-01  2.549976309849E-01  2.611542937874E-01  2.674596030566E-01
  2.739171477128E-01  2.805306033271E-01  2.873037342139E-01  2.942403955727E-01
  3.013445356834E-01  3.086201981530E-01  3.160715242172E-01  3.237027550979E-01
  3.315182344170E-01  3.395224106687E-01  3.477198397519E-01  3.561151875629E-01
  3.647132326514E-01  3.735188689406E-01  3.825371085123E-01  3.917730844602E-01
  4.012320538114E-01  4.109194005186E-01  4.208406385247E-01  4.258907261870E-01
  4.310014149013E-01  4.361734318801E-01  4.414075130626E-01  4.467044032194E-01
  4.520648560580E-01  4.574896343307E-01  4.629795099427E-01  4.685352640620E-01
  4.741576872307E-01  4.798475794775E-01  4.856057504312E-01  4.914330194364E-01
  4.973302156697E-01  5.032981782577E-01  5.093377563968E-01  5.154498094735E-01
  5.216352071872E-01  5.278948296735E-01  5.342295676296E-01  5.406403224411E-01
  5.471280063104E-01  5.536935423861E-01  5.603378648948E-01  5.670619192735E-01
  5.738666623048E-01  5.807530622524E-01  5.877220989995E-01  5.947747641875E-01
  6.019120613577E-01  6.091350060940E-01  6.164446261671E-01  6.238419616811E-01
  6.313280652213E-01  6.389040020040E-01  6.465708500280E-01  6.543297002283E-01
  6.621816566311E-01  6.701278365107E-01  6.781693705488E-01  6.863074029954E-01
  6.945430918313E-01  7.028776089333E-01  7.113121402405E-01  7.198478859234E-01
  7.284860605545E-01  7.372278932811E-01  7.460746280005E-01  7.550275235365E-01
  7.640878538189E-01  7.732569080648E-01  7.825359909615E-01  7.919264228531E-01
  8.014295399273E-01  8.110466944064E-01  8.207792547393E-01  8.306286057962E-01
  8.405961490657E-01  8.506833028545E-01  8.608915024888E-01  8.712222005187E-01
  8.816768669249E-01  8.922569893280E-01  9.029640731999E-01  9.137996420783E-01
  9.247652377832E-01  9.358624206366E-01  9.470927696843E-01  9.584578829205E-01
  9.699593775155E-01  9.815988900457E-01  9.933780767263E-01  1.005298613647E+00
  1.017362197011E+00  1.029570543375E+00  1.041925389895E+00  1.054428494574E+00
  1.067081636509E+00  1.079886616147E+00  1.092845255541E+00  1.105959398607E+00
  1.119230911391E+00  1.132661682327E+00  1.146253622515E+00  1.160008665985E+00
  1.173928769977E+00  1.188015915217E+00  1.202272106200E+00  1.216699371474E+00
  1.231299763932E+00  1.246075361099E+00  1.261028265432E+00  1.276160604617E+00
  1.291474531873E+00  1.306972226255E+00  1.322655892970E+00  1.338527763686E+00
  1.354590096850E+00  1.370845178012E+00  1.387295320148E+00  1.403942863990E+00
  1.420790178358E+00  1.437839660498E+00  1.455093736424E+00  1.472554861261E+00
  1.490225519597E+00  1.508108225832E+00  1.526205524542E+00  1.544519990836E+00
  1.563054230726E+00  1.581810881495E+00  1.600792612073E+00  1.620002123418E+00
  1.639442148899E+00  1.659115454686E+00  1.679024840142E+00  1.699173138224E+00
  1.719563215882E+00  1.740197974473E+00  1.761080350166E+00  1.782213314368E+00
  1.803599874141E+00  1.825243072631E+00  1.847145989502E+00  1.869311741376E+00
  1.891743482273E+00  1.914444404060E+00  1.937417736909E+00  1.960666749752E+00
  1.984194750749E+00  2.008005087758E+00  2.032101148811E+00  2.056486362596E+00
  2.081164198948E+00  2.106138169335E+00  2.131411827367E+00  2.156988769295E+00
  2.182872634527E+00  2.209067106141E+00  2.235575911415E+00  2.262402822352E+00
  2.289551656220E+00  2.317026276095E+00  2.344830591408E+00  2.372968558505E+00
  2.401444181207E+00  2.430261511381E+00  2.459424649518E+00  2.488937745312E+00
  2.518804998256E+00  2.549030658235E+00  2.579619026134E+00  2.610574454447E+00
  2.641901347901E+00  2.673604164076E+00  2.705687414044E+00  2.738155663013E+00
  2.771013530969E+00  2.804265693341E+00  2.837916881661E+00  2.871971884241E+00
  2.906435546852E+00  2.941312773414E+00  2.976608526695E+00  3.012327829015E+00
  3.048475762963E+00  3.085057472119E+00  3.122078161784E+00  3.159543099726E+00
  3.197457616923E+00  3.235827108326E+00  3.274657033625E+00  3.313952918029E+00
  3.353720353045E+00  3.393964997282E+00  3.434692577249E+00  3.475908888176E+00
  3.517619794834E+00  3.559831232372E+00  3.602549207161E+00  3.645779797647E+00
  3.689529155219E+00  3.733803505081E+00  3.778609147142E+00  3.823952456908E+00
  3.869839886391E+00  3.916277965027E+00  3.963273300608E+00  4.010832580215E+00
  4.058962571178E+00  4.107670122032E+00  4.156962163496E+00  4.206845709458E+00
  4.257327857972E+00  4.308415792267E+00  4.360116781774E+00  4.412438183156E+00
  4.465387441354E+00  4.518972090650E+00  4.573199755738E+00  4.628078152807E+00
  4.683615090640E+00  4.739818471728E+00  4.796696293389E+00  4.854256648909E+00
  4.912507728696E+00  4.971457821441E+00  5.031115315298E+00  5.091488699081E+00
  5.152586563470E+00  5.214417602232E+00  5.276990613459E+00  5.340314500820E+00
  5.404398274830E+00  5.469251054128E+00  5.534882066778E+00  5.601300651579E+00
  5.668516259398E+00  5.736538454511E+00  5.805376915965E+00  5.875041438956E+00
  5.945541936224E+00  6.016888439459E+00  6.089091100732E+00  6.162160193941E+00
  6.236106116268E+00  6.310939389663E+00  6.386670662339E+00  6.463310710287E+00
  6.540870438811E+00  6.619360884077E+00  6.698793214686E+00  6.779178733262E+00
  6.860528878061E+00  6.942855224598E+00  7.026169487293E+00  7.110483521140E+00
  7.195809323394E+00  7.282159035275E+00  7.369544943698E+00  7.457979483022E+00
  7.547475236819E+00  7.638044939660E+00  7.729701478936E+00  7.822457896684E+00
  7.916327391444E+00  8.011323320141E+00  8.107459199983E+00  8.204748710383E+00
  8.303205694907E+00  8.402844163246E+00  8.503678293205E+00  8.605722432724E+00
  8.708991101916E+00  8.813498995139E+00  8.919260983081E+00  9.026292114878E+00
  9.134607620256E+00  9.244222911700E+00  9.355153586640E+00  9.467415429680E+00
  9.581024414836E+00  9.695996707814E+00  9.812348668308E+00  9.930096852327E+00
  1.004925801456E+01  1.016984911073E+01  1.029188730006E+01  1.041538994766E+01
  1.054037462703E+01  1.066685912256E+01  1.079486143203E+01  1.092439976921E+01
  1.105549256644E+01  1.118815847724E+01  1.132241637897E+01  1.145828537551E+01
  1.159578480002E+01  1.173493421762E+01  1.187575342823E+01  1.201826246937E+01
  1.216248161900E+01  1.230843139843E+01  1.245613257521E+01  1.260560616611E+01
  1.275687344011E+01  1.290995592139E+01  1.306487539244E+01  1.322165389715E+01
  1.338031374392E+01  1.354087750885E+01  1.370336803895E+01  1.386780845542E+01
  1.403422215689E+01  1.420263282277E+01  1.437306441664E+01  1.454554118964E+01
  1.472008768392E+01  1.489672873612E+01  1.507548948096E+01  1.525639535473E+01
  1.543947209899E+01  1.562474576417E+01  1.581224271334E+01  1.600198962590E+01
  1.619401350141E+01  1.638834166343E+01  1.658500176339E+01  1.678402178455E+01
  1.698543004597E+01  1.718925520652E+01  1.739552626900E+01  1.760427258423E+01
  1.781552385524E+01  1.802931014150E+01  1.824566186320E+01  1.846460980556E+01
  1.868618512322E+01  1.891041934470E+01  1.913734437684E+01  1.936699250936E+01
  1.959939641947E+01  1.983458917651E+01  2.007260424662E+01  2.031347549758E+01
  2.055723720355E+01  2.080392405000E+01  2.105357113860E+01  2.130621399226E+01
  2.156188856017E+01  2.182063122289E+01  2.208247879756E+01  2.234746854313E+01
  2.261563816565E+01  2.288702582364E+01  2.316167013352E+01  2.343961017513E+01
  2.372088549723E+01  2.400553612319E+01  2.429360255667E+01  2.458512578735E+01
  2.488014729680E+01  2.517870906436E+01  2.548085357313E+01  2.578662381601E+01
  2.609606330180E+01  2.640921606143E+01  2.672612665416E+01  2.704684017401E+01
  2.737140225610E+01  2.769985908317E+01  2.803225739217E+01  2.836864448088E+01
  2.870906821465E+01  2.905357703323E+01  2.940221995762E+01  2.975504659712E+01
  3.011210715628E+01  3.047345244216E+01  3.083913387146E+01  3.120920347792E+01
  3.158371391965E+01  3.196271848669E+01  3.234627110853E+01  3.273442636183E+01
  3.312723947817E+01  3.352476635191E+01  3.392706354814E+01  3.433418831071E+01
  3.474619857044E+01  3.516315295329E+01  3.558511078873E+01  3.601213211819E+01
  3.644427770361E+01  3.688160903605E+01  3.732418834449E+01  3.777207860462E+01
  3.822534354788E+01  3.868404767045E+01  3.914825624250E+01  3.961803531741E+01
  4.009345174121E+01  4.057457316211E+01  4.106146804005E+01  4.155420565653E+01
  4.205285612441E+01  4.255749039791E+01  4.306818028268E+01  4.358499844607E+01
  4.410801842743E+01
</grid-data>
</grid>
<valence-charge total-charge="20" is-unscreening-charge="yes"
 rescaled-to-z-pseudo="no">
<radfunc>
<data npts="457">
  1.552161653633E+00  1.553816293931E+00  1.558763678643E+00  1.567021331807E+00
  1.578510021262E+00  1.593630094657E+00  1.612922917011E+00  1.635045772791E+00
  1.662567055690E+00  1.692378778716E+00  1.726051634872E+00  1.762735528779E+00
  1.807186205843E+00  1.853745451515E+00  1.900394165567E+00  1.954296104237E+00
  2.016589896432E+00  2.075858122475E+00  2.142741432437E+00  2.218229316899E+00
  2.303441654095E+00  2.379459427231E+00  2.463233705070E+00  2.555564637835E+00
  2.657335229517E+00  2.769519524965E+00  2.893191387891E+00  2.994191274919E+00
  3.102858432158E+00  3.219775377965E+00  3.345567052643E+00  3.480903222208E+00
  3.626500820013E+00  3.783126161330E+00  3.951596948323E+00  4.132783961656E+00
  4.327612309701E+00  4.537062076391E+00  4.685327103326E+00  4.840869364922E+00
  5.004019164005E+00  5.175116708913E+00  5.354511534025E+00  5.542561741914E+00
  5.739633040891E+00  5.946097549017E+00  6.162332332806E+00  6.388717645918E+00
  6.625634830154E+00  6.873463838088E+00  7.132580333776E+00  7.403352325224E+00
  7.686136279889E+00  7.981272672402E+00  8.289080912297E+00  8.609853598848E+00
  8.943850050492E+00  9.291289057986E+00  9.652340813739E+00  1.002711797502E+01
  1.041566582647E+01  1.081795151780E+01  1.123385236651E+01  1.166314323332E+01
  1.210548299996E+01  1.256040020669E+01  1.302727793925E+01  1.326496558224E+01
  1.350533809445E+01  1.374827037171E+01  1.399362519863E+01  1.424125273506E+01
  1.449099000586E+01  1.474266039715E+01  1.499607316189E+01  1.525102293846E+01
  1.550728928593E+01  1.576463624004E+01  1.602281189437E+01  1.628154801132E+01
  1.654055966797E+01  1.679954494220E+01  1.705818464465E+01  1.731614210257E+01
  1.757306300182E+01  1.782857529345E+01  1.808228917175E+01  1.833379713073E+01
  1.858267410618E+01  1.882847771055E+01  1.907074856812E+01  1.930901075776E+01
  1.954277237067E+01  1.977152619014E+01  1.999475050043E+01  2.021191003132E+01
  2.042245704442E+01  2.062583256705E+01  2.082146777837E+01  2.100878555208E+01
  2.118720215875E+01  2.135612912970E+01  2.151497528342E+01  2.166314891367E+01
  2.180006013716E+01  2.192512339676E+01  2.203776011452E+01  2.213740148660E+01
  2.222349141018E+01  2.229548953021E+01  2.235287439146E+01  2.239514667900E+01
  2.242183252797E+01  2.243248688097E+01  2.242669686904E+01  2.240408519030E+01
  2.236431345786E+01  2.230708548691E+01  2.223215048938E+01  2.213930614312E+01
  2.202840150156E+01  2.189933970943E+01  2.175208048989E+01  2.158664236900E+01
  2.140310460424E+01  2.120160878544E+01  2.098236007852E+01  2.074562808515E+01
  2.049174729452E+01  2.022111710730E+01  1.993420141596E+01  1.963152773024E+01
  1.931368584149E+01  1.898132602464E+01  1.863515678193E+01  1.827594213753E+01
  1.790449849738E+01  1.752169109318E+01  1.712843003411E+01  1.672566599316E+01
  1.631438555885E+01  1.589560628509E+01  1.547037147409E+01  1.503974472840E+01
  1.460480430847E+01  1.416663733220E+01  1.372633385251E+01  1.328498084800E+01
  1.284365616135E+01  1.240342241897E+01  1.196532096584E+01  1.153036584917E+01
  1.109953788642E+01  1.067377885473E+01  1.025398584236E+01  9.841005806725E+00
  9.435630388422E+00  9.038591036329E+00  8.650554504487E+00  8.272118787035E+00
  7.903809562168E+00  7.546077219491E+00  7.199294546535E+00  6.863755149084E+00
  6.539672675804E+00  6.227180910188E+00  5.926334781740E+00  5.637112333773E+00
  5.359419173584E+00  5.093099926417E+00  4.837953591739E+00  4.593740916731E+00
  4.360193561172E+00  4.137027489409E+00  3.923945775581E+00  3.720641307760E+00
  3.526799279393E+00  3.342099480447E+00  3.166218392144E+00  2.998831089956E+00
  2.839612960759E+00  2.688241240960E+00  2.544396383216E+00  2.407763260009E+00
  2.278032212813E+00  2.154899956111E+00  2.038070344695E+00  1.927255015463E+00
  1.822173911303E+00  1.722555697338E+00  1.628138078539E+00  1.538668027626E+00
  1.453901931960E+00  1.373605667725E+00  1.297554609374E+00  1.225533581887E+00
  1.157336762967E+00  1.092767541873E+00  1.031638341110E+00  9.737704067766E-01
  9.189935729015E-01  8.671460046503E-01  8.180739248703E-01  7.716313279998E-01
  7.276796849725E-01  6.860876423590E-01  6.467307186176E-01  6.094909999811E-01
  5.742568381795E-01  5.409225518957E-01  5.093881335707E-01  4.795589629141E-01
  4.513455282408E-01  4.246631565378E-01  3.994317529698E-01  3.755755503578E-01
  3.530228690096E-01  3.317058871397E-01  3.115604219985E-01  2.925257217230E-01
  2.745442678301E-01  2.575615881971E-01  2.415260803088E-01  2.263888444966E-01
  2.121035268523E-01  1.986261714643E-01  1.859150815997E-01  1.739306894357E-01
  1.626354339335E-01  1.519936464409E-01  1.419714436097E-01  1.325366272161E-01
  1.236585904807E-01  1.153082304935E-01  1.074578663630E-01  1.000811627225E-01
  9.315305824255E-02  8.664969881706E-02  8.054837510649E-02  7.482746413743E-02
  6.946637470305E-02  6.444549625471E-02  5.974615108900E-02  5.535054957848E-02
  5.124174823748E-02  4.740361042384E-02  4.382076948925E-02  4.047859420214E-02
  3.736315627634E-02  3.446119984732E-02  3.176011274475E-02  2.924789941735E-02
  2.691315537126E-02  2.474504298976E-02  2.273326860741E-02  2.086806071843E-02
  1.914014920520E-02  1.754074548052E-02  1.606152344462E-02  1.469460116679E-02
  1.343252321025E-02  1.226824352840E-02  1.119510887025E-02  1.020684264243E-02
  9.297529184733E-03  8.461598425228E-03  7.693810889524E-03  6.989243046568E-03
  6.343272980342E-03  5.751566382847E-03  5.210062868816E-03  4.714962616656E-03
  4.262713343217E-03  3.849997622141E-03  3.473720556854E-03  3.130997819785E-03
  2.819144069288E-03  2.535661754953E-03  2.278230320859E-03  2.044695814681E-03
  1.833060908735E-03  1.641475336972E-03  1.468226749770E-03  1.311731986157E-03
  1.170528760949E-03  1.043267762170E-03  9.287051522020E-04  8.256954642969E-04
  7.331848845376E-04  6.502049079682E-04  5.758663564912E-04  5.093537452506E-04
  4.499199835743E-04  3.968813961231E-04  3.496130496736E-04  3.075443709308E-04
  2.701550408989E-04  2.369711515998E-04  2.075616113113E-04  1.815347849518E-04
  1.585353567624E-04  1.382414029937E-04  1.203616628818E-04  1.046329967761E-04
  9.081802085137E-05  7.870290838368E-05  6.809534808992E-05  5.882265052287E-05
  5.072999396790E-05  4.367880171238E-05  3.754524295011E-05  3.221884994580E-05
  2.760124442059E-05  2.360496643330E-05  2.015239932606E-05  1.717478458125E-05
  1.461132070208E-05  1.240834048463E-05  1.051856129689E-05  8.900403222068E-06
  7.517370160987E-06  6.337489222427E-06  5.332803961188E-06  4.478917252330E-06
  3.754579815883E-06  3.141320629297E-06  2.623115684598E-06  2.186091763053E-06
  1.818262111470E-06  1.509291110477E-06  1.250285225515E-06  1.033607725307E-06
  8.527148395117E-07  7.020112068276E-07  5.767226363217E-07  4.727843681082E-07
  3.867431742464E-07  3.156717868378E-07  2.570942776298E-07  2.089211420144E-07
  1.693929602192E-07  1.370316198671E-07  1.105981871553E-07  8.905660891718E-08
  7.154251510083E-08  5.733647105715E-08  4.584110184444E-08  3.656157691615E-08
  2.908900345547E-08  2.308633066408E-08  1.827641590545E-08  1.443194714795E-08
  1.136695504301E-08  8.929682589975E-09  6.996611050513E-09  5.467467931592E-09
  4.261066790574E-09  3.311849642022E-09  2.567021156933E-09  1.984179914116E-09
  1.529365942956E-09  1.175455919224E-09  9.008478534930E-10  6.883861390619E-10
  5.244855784996E-10  3.984196436449E-10  3.017438853260E-10  2.278302235396E-10
  1.714919295863E-10  1.286825591477E-10  9.625499813030E-11  7.176921920617E-11
  5.333938455963E-11  3.951262884909E-11  2.917326742959E-11  2.146734328801E-11
  1.574338923215E-11  1.147673330661E-11  8.360009391064E-12  6.068273135298E-12
  4.389097604914E-12  3.163142595611E-12  2.271313744180E-12  1.624918148550E-12
  1.158144600219E-12  8.223405642079E-13  5.816727493424E-13  4.098491149893E-13
  2.876520784695E-13  2.010893005477E-13  1.400128159114E-13  9.709194193619E-14
  6.705236309681E-14  4.611467617709E-14  3.158179576579E-14  2.153699966937E-14
  1.462386527252E-14  9.886563235191E-15  6.654448066946E-15  4.459018759993E-15
  2.974430965026E-15  1.975069149905E-15  1.305421410388E-15  8.587862405093E-16
  5.622907734323E-16  3.663985002143E-16  2.375955402882E-16  1.533167000545E-16
  9.844227233075E-17  6.289105532383E-17  3.997468072759E-17  2.527804370513E-17
  1.590147450660E-17  9.950379273278E-18  6.193307803516E-18  3.834057715126E-18
  2.360583688601E-18  1.445361273027E-18  8.800367737741E-19  5.327990096598E-19
  3.207263303645E-19  1.919484088054E-19  1.142043972428E-19  6.754588394859E-20
  3.971016363393E-20  2.320383526592E-20  1.347539087888E-20  7.777038519988E-21
  4.460111849373E-21  2.541573512958E-21  1.438970318693E-21  0.000000000000E+00
  0.000000000000E+00  0.000000000000E+00  0.000000000000E+00  0.000000000000E+00
  0.000000000000E+00  0.000000000000E+00  0.000000000000E+00  0.000000000000E+00
  0.000000000000E+00  0.000000000000E+00  0.000000000000E+00  0.000000000000E+00
  0.000000000000E+00  0.000000000000E+00  0.000000000000E+00  0.000000000000E+00
  0.000000000000E+00  0.000000000000E+00  0.000000000000E+00  0.000000000000E+00
  0.000000000000E+00  0.000000000000E+00  0.000000000000E+00  0.000000000000E+00
  0.000000000000E+00
</data>
</radfunc>
</valence-charge>
<pseudocore-charge matching-radius="0.764087853819"
 number-of-continuous-derivatives="4">
<annotation model-charge-form="Teter function with specified parameters" />
<radfunc>
<data npts="290">
  1.152512896076E+02  1.152428598936E+02  1.152176610822E+02  1.151756222665E+02
  1.151171769167E+02  1.150403327720E+02  1.149424045503E+02  1.148302801238E+02
  1.146910450391E+02  1.145405326204E+02  1.143709111987E+02  1.141865826497E+02
  1.139638643714E+02  1.137313205059E+02  1.134990789301E+02  1.132316484744E+02
  1.129237951501E+02  1.126320823364E+02  1.123042572999E+02  1.119359699379E+02
  1.115223784767E+02  1.111552901781E+02  1.107527522429E+02  1.103114848849E+02
  1.098279349938E+02  1.092982598116E+02  1.087183111236E+02  1.082476819565E+02
  1.077442594804E+02  1.072059275831E+02  1.066304595754E+02  1.060155165842E+02
  1.053586467160E+02  1.046572851558E+02  1.039087553902E+02  1.031102717676E+02
  1.022589436342E+02  1.013517813149E+02  1.007144696110E+02  1.000500421197E+02
  9.935755151299E+01  9.863603821036E+01  9.788453263934E+01  9.710205781512E+01
  9.628763226521E+01  9.544027332580E+01  9.455900083736E+01  9.364284126788E+01
  9.269083229200E+01  9.170202785481E+01  9.067550374860E+01  8.961036373012E+01
  8.850574620478E+01  8.736083150240E+01  8.617484976669E+01  8.494708947726E+01
  8.367690661908E+01  8.236373450893E+01  8.100709428227E+01  7.960660603635E+01
  7.816200061644E+01  7.667313202176E+01  7.513999039534E+01  7.356271554838E+01
  7.194161095368E+01  7.027715812508E+01  6.857003127983E+01  6.770073213249E+01
  6.682111215905E+01  6.593131643625E+01  6.503150485727E+01  6.412185258302E+01
  6.320255048605E+01  6.227380558515E+01  6.133584146866E+01  6.038889870431E+01
  5.943323523351E+01  5.846912674748E+01  5.749686704297E+01  5.651676835480E+01
  5.552916166251E+01  5.453439696832E+01  5.353284354335E+01  5.252489013900E+01
  5.151094516037E+01  5.049143679836E+01  4.946681311700E+01  4.843754209271E+01
  4.740411160167E+01  4.636702935201E+01  4.532682275691E+01  4.428403874502E+01
  4.323924350460E+01  4.219302215759E+01  4.114597836002E+01  4.009873382524E+01
  3.905192776646E+01  3.800621625516E+01  3.696227149239E+01  3.592078098972E+01
  3.488244665721E+01  3.384798379582E+01  3.281811999215E+01  3.179359391355E+01
  3.077515400223E+01  2.976355706747E+01  2.875956677525E+01  2.776395203554E+01
  2.677748528790E+01  2.580094068659E+01  2.483509218752E+01  2.388071153946E+01
  2.293856618357E+01  2.200941706534E+01  2.109401636468E+01  2.019310515020E+01
  1.930741096536E+01  1.843764535454E+01  1.758450133873E+01  1.674865085115E+01
  1.593074214452E+01  1.513139718255E+01  1.435120902950E+01  1.359073925253E+01
  1.285051535276E+01  1.213102824171E+01  1.143272978097E+01  1.075603040355E+01
  1.010129683608E+01  9.468849941939E+00  8.858962705338E+00  8.271858377234E+00
  7.707708803662E+00  7.166632957235E+00  6.648695692192E+00  6.153906742854E+00
  5.682219984582E+00  5.233532975272E+00  4.807686794095E+00  4.404466192556E+00
  4.023600071015E+00  3.664762291578E+00  3.327572835717E+00  3.011599312135E+00
  2.716358817241E+00  2.441320147211E+00  2.185906356933E+00  1.949497657247E+00
  1.731434637855E+00  1.531021799029E+00  1.347531371016E+00  1.180207395665E+00
  1.028270040589E+00  8.909201119709E-01  7.673437282024E-01  6.567171128259E-01
  5.582114619605E-01  4.709978385087E-01  3.942520431284E-01  3.271594102603E-01
  2.689194765208E-01  2.187504685818E-01  1.758935583187E-01  1.396168345807E-01
  1.092189434523E-01  8.403235235739E-02  6.342619780563E-02  4.680868196868E-02
  3.362898955527E-02  2.337870355295E-02  1.559270621632E-02  9.849560077000E-03
  5.771372572607E-03  3.023156957639E-03  1.311711265061E-03  3.840460112553E-04
  2.539984440069E-05  5.689018626028E-05  3.328528697125E-04  7.379305983513E-04
  1.183974537205E-03  1.606826299487E-03  1.963048874142E-03  2.226674539040E-03
  2.386035474576E-03  2.440738641887E-03  2.398840593574E-03  2.274270385045E-03
  2.084539861045E-03  1.848770578673E-03  1.586055826664E-03  1.314164990325E-03
  1.048586305604E-03  8.018932757771E-04  5.834101202428E-04  3.991429952868E-04
  2.519367360033E-04  1.418118169767E-04  6.643333230659E-05  2.166316790151E-05
  2.148182403338E-06  1.901010115569E-06  1.483581356411E-05  3.522859768989E-05
  5.808011006052E-05  7.936837817136E-05  9.618702053225E-05  1.067740509286E-04
  1.104434446818E-04  1.074377915404E-04  9.872456725995E-05  8.576069564133E-05
  7.025008170876E-05  5.391677725862E-05  3.831265598891E-05  2.467333351400E-05
  1.383008512869E-05  6.179275030034E-06  1.704912368311E-06  4.494644710771E-08
  5.882618033441E-07  2.587343957824E-06  5.271388156798E-06  7.946149707214E-06
  1.006982754440E-05  1.129831084202E-05  1.149766486537E-05  1.072619909749E-05
  9.192282664894E-06  7.196779776779E-06  5.070260780963E-06  3.114894683407E-06
  1.559257898288E-06  5.315172855955E-07  5.303734585017E-08  0.000000000000E+00
  0.000000000000E+00  0.000000000000E+00  0.000000000000E+00  0.000000000000E+00
  0.000000000000E+00  0.000000000000E+00  0.000000000000E+00  0.000000000000E+00
  0.000000000000E+00  0.000000000000E+00  0.000000000000E+00  0.000000000000E+00
  0.000000000000E+00  0.000000000000E+00  0.000000000000E+00  0.000000000000E+00
  0.000000000000E+00  0.000000000000E+00  0.000000000000E+00  0.000000000000E+00
  0.000000000000E+00  0.000000000000E+00  0.000000000000E+00  0.000000000000E+00
  0.000000000000E+00  0.000000000000E+00  0.000000000000E+00  0.000000000000E+00
  0.000000000000E+00  0.000000000000E+00  0.000000000000E+00  0.000000000000E+00
  0.000000000000E+00  0.000000000000E+00  0.000000000000E+00  0.000000000000E+00
  0.000000000000E+00  0.000000000000E+00  0.000000000000E+00  0.000000000000E+00
  0.000000000000E+00  0.000000000000E+00  0.000000000000E+00  0.000000000000E+00
  0.000000000000E+00  0.000000000000E+00  0.000000000000E+00  0.000000000000E+00
  0.000000000000E+00  0.000000000000E+00  0.000000000000E+00  0.000000000000E+00
  0.000000000000E+00  0.000000000000E+00
</data>
</radfunc>
</pseudocore-charge>
<semilocal-potentials set="scalar_relativistic">
<slps n="5" l="s" rc="1.40394286399" eref="-4.34552335703">
<radfunc>
<data npts="290">
 -1.958927735420E+00 -1.965204428246E+00 -1.983954277298E+00 -2.015191222432E+00
 -2.058529601488E+00 -2.115353276499E+00 -2.187509385014E+00 -2.269771886646E+00
 -2.371402672337E+00 -2.480619685952E+00 -2.602906547135E+00 -2.734849047781E+00
 -2.892969406403E+00 -3.056564422352E+00 -3.218436580531E+00 -3.402992068973E+00
 -3.613038260353E+00 -3.809735458878E+00 -4.028116793296E+00 -4.270149408881E+00
 -4.537874838394E+00 -4.771958407688E+00 -5.024903717758E+00 -5.297784958002E+00
 -5.591654345220E+00 -5.907523626522E+00 -6.246342853661E+00 -6.516042132182E+00
 -6.799463872772E+00 -7.096890444416E+00 -7.408554847776E+00 -7.734633269236E+00
 -8.075237426116E+00 -8.430406806816E+00 -8.800100926992E+00 -9.184191738916E+00
 -9.582456345218E+00 -9.994570179112E+00 -1.027679781621E+01 -1.056483492130E+01
 -1.085850261457E+01 -1.115759851518E+01 -1.146189633382E+01 -1.177114557646E+01
 -1.208507136608E+01 -1.240337438794E+01 -1.272573096258E+01 -1.305179324925E+01
 -1.338118958048E+01 -1.371352492706E+01 -1.404838149047E+01 -1.438531941781E+01
 -1.472387763261E+01 -1.506357477242E+01 -1.540391022264E+01 -1.574436523398E+01
 -1.608440410959E+01 -1.642347544610E+01 -1.676101341229E+01 -1.709643904765E+01
 -1.742916156313E+01 -1.775857962588E+01 -1.808408261041E+01 -1.840505179891E+01
 -1.872086151496E+01 -1.903088017610E+01 -1.933447125288E+01 -1.948365639177E+01
 -1.963099412433E+01 -1.977640385577E+01 -1.991980482240E+01 -2.006111610849E+01
 -2.020025666145E+01 -2.033714530521E+01 -2.047170075181E+01 -2.060384161142E+01
 -2.073348640075E+01 -2.086055354993E+01 -2.098496140810E+01 -2.110662824773E+01
 -2.122547226790E+01 -2.134141159664E+01 -2.145436429261E+01 -2.156424834621E+01
 -2.167098168056E+01 -2.177448215230E+01 -2.187466755279E+01 -2.197145560983E+01
 -2.206476399015E+01 -2.215451030327E+01 -2.224061210671E+01 -2.232298691332E+01
 -2.240155220075E+01 -2.247622542373E+01 -2.254692402947E+01 -2.261356547661E+01
 -2.267606725830E+01 -2.273434692968E+01 -2.278832214045E+01 -2.283791067292E+01
 -2.288303048599E+01 -2.292359976581E+01 -2.295953698332E+01 -2.299076095945E+01
 -2.301719093844E+01 -2.303874666968E+01 -2.305534849884E+01 -2.306691746857E+01
 -2.307337542945E+01 -2.307464516157E+01 -2.307065050739E+01 -2.306131651624E+01
 -2.304656960098E+01 -2.302633770736E+01 -2.300055049648E+01 -2.296913954083E+01
 -2.293203853455E+01 -2.288918351812E+01 -2.284051311838E+01 -2.278596880408E+01
 -2.272549515789E+01 -2.265904016539E+01 -2.258655552179E+01 -2.250799695740E+01
 -2.242332458271E+01 -2.233250325430E+01 -2.223550296289E+01 -2.213229924513E+01
 -2.202287362077E+01 -2.190721405753E+01 -2.178531546584E+01 -2.165718022644E+01
 -2.152281875407E+01 -2.138225010107E+01 -2.123550260538E+01 -2.108261458833E+01
 -2.092363510817E+01 -2.075862477696E+01 -2.058765664916E+01 -2.041081719238E+01
 -2.022820735212E+01 -2.003994372498E+01 -1.984615985712E+01 -1.964700768790E+01
 -1.944265916201E+01 -1.923330803742E+01 -1.901917192086E+01 -1.880049456736E+01
 -1.857754848532E+01 -1.835063789429E+01 -1.812010208720E+01 -1.788631925406E+01