<?xml version="1.0" encoding="UTF-8" ?>
<psml version="1.1" energy_unit="hartree" length_unit="bohr"
 uuid="e3d4cc40-1d60-11e8-6ae3-0aebef7d9a21"
 xmlns="http://esl.cecam.org/PSML/ns/1.1">
<provenance creator="ONCVPSP-3.3.0+psml-3.3.0-73 (scalar-relativistic)"
 date="2018-03-01">
<annotation action="semilocal-pseudopotential-generation"
 action-cont="projectors-generation" />
<input-file name="oncvpsp-input">
<![CDATA[# atsym z nc nv iexc psfile
Hg 80 10 4 -116133 upf
# n l f
1 0 2.0
2 0 2.0
2 1 6.0
3 0 2.0
3 1 6.0
3 2 10.0
4 0 2.0
4 1 6.0
4 2 10.0
4 3 14.0
5 0 2.0
5 1 6.0
5 2 10.0
6 0 2.0
# lmax
3
# l rc ep ncon nbas qcut
0 1.6 0.0 4 8 8.0
1 1.6 0.0 4 8 8.2
2 1.45 0.0 4 8 8.8
3 1.6 0.1 4 8 6.8
# lloc lpopt rc5 dvloc0
4 5 1.45 0.0
# l nproj debl
0 2 1.0
1 2 2.8
2 2 1.8
3 1 1.5
# icmod fcfact rcfact
3 5.0 1.37
# epsh1 epsh2 depsh
-12.0 12.0 0.02
# rlmax drl
6.0 0.01
 0
]]>
</input-file>
</provenance>
<pseudo-atom-spec atomic-label="Hg" atomic-number="80" z-pseudo="20"
 flavor="Hamann&apos;s oncvpsp" relativity="scalar" spin-dft="no"
 core-corrections="yes">
<annotation pseudo-energy="-156.136502219" />
<exchange-correlation>
<annotation oncvpsp-xc-code="-116133" oncvpsp-xc-type="libxc-interface" />
<libxc-info number-of-functionals="2">
<functional name="Perdew, Burke &amp; Ernzerhof SOL (GGA)" type="exchange"
 id="116" />
<functional name="Perdew, Burke &amp; Ernzerhof SOL (GGA)" type="correlation"
 id="133" />
</libxc-info>
</exchange-correlation>
<valence-configuration total-valence-charge="20">
<shell n="5" l="s" occupation="2" />
<shell n="5" l="p" occupation="6" />
<shell n="5" l="d" occupation="10" />
<shell n="6" l="s" occupation="2" />
</valence-configuration>
</pseudo-atom-spec>
<grid npts="457">
<annotation type="sampled from oncvpsp log grid"
 recipe="r(i:1..N) = r1*exp(a*(i-1)) + r=0; resampled"
 recipe-cont="r1: scale; a: step" scale="0.625000000000E-05"
 step="0.119285708653E-01" delta="0.500000000000E-02" rmax="44.1080184274" />
<grid-data>
  0.000000000000E+00  5.036716794685E-03  1.006044653004E-02  1.509227403831E-02
  2.009495242827E-02  2.520674221625E-02  3.050738058830E-02  3.562473008824E-02
  4.110718453678E-02  4.631512683008E-02  5.156410335150E-02  5.672722906228E-02
  6.240733975628E-02  6.784209610731E-02  7.287563178056E-02  7.828262999150E-02
  8.409079974550E-02  8.925880031034E-02  9.474441267004E-02  1.005671564146E-01
  1.067477507570E-01  1.119646129040E-01  1.174364279700E-01  1.231756557421E-01
  1.291953649286E-01  1.355092629178E-01  1.421317269910E-01  1.473101156723E-01
  1.526771723584E-01  1.582397709279E-01  1.640050357007E-01  1.699803505620E-01
  1.761733684197E-01  1.825920210056E-01  1.892445290339E-01  1.961394127302E-01
  2.032855027437E-01  2.106919514570E-01  2.157788979330E-01  2.209886636447E-01
  2.263242139397E-01  2.317885857611E-01  2.373848893757E-01  2.431163101448E-01
  2.489861103369E-01  2.549976309849E-01  2.611542937874E-01  2.674596030566E-01
  2.739171477128E-01  2.805306033271E-01  2.873037342139E-01  2.942403955727E-01
  3.013445356834E-01  3.086201981530E-01  3.160715242172E-01  3.237027550979E-01
  3.315182344170E-01  3.395224106687E-01  3.477198397519E-01  3.561151875629E-01
  3.647132326514E-01  3.735188689406E-01  3.825371085123E-01  3.917730844602E-01
  4.012320538114E-01  4.109194005186E-01  4.208406385247E-01  4.258907261870E-01
  4.310014149013E-01  4.361734318801E-01  4.414075130626E-01  4.467044032194E-01
  4.520648560580E-01  4.574896343307E-01  4.629795099427E-01  4.685352640620E-01
  4.741576872307E-01  4.798475794775E-01  4.856057504312E-01  4.914330194364E-01
  4.973302156697E-01  5.032981782577E-01  5.093377563968E-01  5.154498094735E-01
  5.216352071872E-01  5.278948296735E-01  5.342295676296E-01  5.406403224411E-01
  5.471280063104E-01  5.536935423861E-01  5.603378648948E-01  5.670619192735E-01
  5.738666623048E-01  5.807530622524E-01  5.877220989995E-01  5.947747641875E-01
  6.019120613577E-01  6.091350060940E-01  6.164446261671E-01  6.238419616811E-01
  6.313280652213E-01  6.389040020040E-01  6.465708500280E-01  6.543297002283E-01
  6.621816566311E-01  6.701278365107E-01  6.781693705488E-01  6.863074029954E-01
  6.945430918313E-01  7.028776089333E-01  7.113121402405E-01  7.198478859234E-01
  7.284860605545E-01  7.372278932811E-01  7.460746280005E-01  7.550275235365E-01
  7.640878538189E-01  7.732569080648E-01  7.825359909615E-01  7.919264228531E-01
  8.014295399273E-01  8.110466944064E-01  8.207792547393E-01  8.306286057962E-01
  8.405961490657E-01  8.506833028545E-01  8.608915024888E-01  8.712222005187E-01
  8.816768669249E-01  8.922569893280E-01  9.029640731999E-01  9.137996420783E-01
  9.247652377832E-01  9.358624206366E-01  9.470927696843E-01  9.584578829205E-01
  9.699593775155E-01  9.815988900457E-01  9.933780767263E-01  1.005298613647E+00
  1.017362197011E+00  1.029570543375E+00  1.041925389895E+00  1.054428494574E+00
  1.067081636509E+00  1.079886616147E+00  1.092845255541E+00  1.105959398607E+00
  1.119230911391E+00  1.132661682327E+00  1.146253622515E+00  1.160008665985E+00
  1.173928769977E+00  1.188015915217E+00  1.202272106200E+00  1.216699371474E+00
  1.231299763932E+00  1.246075361099E+00  1.261028265432E+00  1.276160604617E+00
  1.291474531873E+00  1.306972226255E+00  1.322655892970E+00  1.338527763686E+00
  1.354590096850E+00  1.370845178012E+00  1.387295320148E+00  1.403942863990E+00
  1.420790178358E+00  1.437839660498E+00  1.455093736424E+00  1.472554861261E+00
  1.490225519597E+00  1.508108225832E+00  1.526205524542E+00  1.544519990836E+00
  1.563054230726E+00  1.581810881495E+00  1.600792612073E+00  1.620002123418E+00
  1.639442148899E+00  1.659115454686E+00  1.679024840142E+00  1.699173138224E+00
  1.719563215882E+00  1.740197974473E+00  1.761080350166E+00  1.782213314368E+00
  1.803599874141E+00  1.825243072631E+00  1.847145989502E+00  1.869311741376E+00
  1.891743482273E+00  1.914444404060E+00  1.937417736909E+00  1.960666749752E+00
  1.984194750749E+00  2.008005087758E+00  2.032101148811E+00  2.056486362596E+00
  2.081164198948E+00  2.106138169335E+00  2.131411827367E+00  2.156988769295E+00
  2.182872634527E+00  2.209067106141E+00  2.235575911415E+00  2.262402822352E+00
  2.289551656220E+00  2.317026276095E+00  2.344830591408E+00  2.372968558505E+00
  2.401444181207E+00  2.430261511381E+00  2.459424649518E+00  2.488937745312E+00
  2.518804998256E+00  2.549030658235E+00  2.579619026134E+00  2.610574454447E+00
  2.641901347901E+00  2.673604164076E+00  2.705687414044E+00  2.738155663013E+00
  2.771013530969E+00  2.804265693341E+00  2.837916881661E+00  2.871971884241E+00
  2.906435546852E+00  2.941312773414E+00  2.976608526695E+00  3.012327829015E+00
  3.048475762963E+00  3.085057472119E+00  3.122078161784E+00  3.159543099726E+00
  3.197457616923E+00  3.235827108326E+00  3.274657033625E+00  3.313952918029E+00
  3.353720353045E+00  3.393964997282E+00  3.434692577249E+00  3.475908888176E+00
  3.517619794834E+00  3.559831232372E+00  3.602549207161E+00  3.645779797647E+00
  3.689529155219E+00  3.733803505081E+00  3.778609147142E+00  3.823952456908E+00
  3.869839886391E+00  3.916277965027E+00  3.963273300608E+00  4.010832580215E+00
  4.058962571178E+00  4.107670122032E+00  4.156962163496E+00  4.206845709458E+00
  4.257327857972E+00  4.308415792267E+00  4.360116781774E+00  4.412438183156E+00
  4.465387441354E+00  4.518972090650E+00  4.573199755738E+00  4.628078152807E+00
  4.683615090640E+00  4.739818471728E+00  4.796696293389E+00  4.854256648909E+00
  4.912507728696E+00  4.971457821441E+00  5.031115315298E+00  5.091488699081E+00
  5.152586563470E+00  5.214417602232E+00  5.276990613459E+00  5.340314500820E+00
  5.404398274830E+00  5.469251054128E+00  5.534882066778E+00  5.601300651579E+00
  5.668516259398E+00  5.736538454511E+00  5.805376915965E+00  5.875041438956E+00
  5.945541936224E+00  6.016888439459E+00  6.089091100732E+00  6.162160193941E+00
  6.236106116268E+00  6.310939389663E+00  6.386670662339E+00  6.463310710287E+00
  6.540870438811E+00  6.619360884077E+00  6.698793214686E+00  6.779178733262E+00
  6.860528878061E+00  6.942855224598E+00  7.026169487293E+00  7.110483521140E+00
  7.195809323394E+00  7.282159035275E+00  7.369544943698E+00  7.457979483022E+00
  7.547475236819E+00  7.638044939660E+00  7.729701478936E+00  7.822457896684E+00
  7.916327391444E+00  8.011323320141E+00  8.107459199983E+00  8.204748710383E+00
  8.303205694907E+00  8.402844163246E+00  8.503678293205E+00  8.605722432724E+00
  8.708991101916E+00  8.813498995139E+00  8.919260983081E+00  9.026292114878E+00
  9.134607620256E+00  9.244222911700E+00  9.355153586640E+00  9.467415429680E+00
  9.581024414836E+00  9.695996707814E+00  9.812348668308E+00  9.930096852327E+00
  1.004925801456E+01  1.016984911073E+01  1.029188730006E+01  1.041538994766E+01
  1.054037462703E+01  1.066685912256E+01  1.079486143203E+01  1.092439976921E+01
  1.105549256644E+01  1.118815847724E+01  1.132241637897E+01  1.145828537551E+01
  1.159578480002E+01  1.173493421762E+01  1.187575342823E+01  1.201826246937E+01
  1.216248161900E+01  1.230843139843E+01  1.245613257521E+01  1.260560616611E+01
  1.275687344011E+01  1.290995592139E+01  1.306487539244E+01  1.322165389715E+01
  1.338031374392E+01  1.354087750885E+01  1.370336803895E+01  1.386780845542E+01
  1.403422215689E+01  1.420263282277E+01  1.437306441664E+01  1.454554118964E+01
  1.472008768392E+01  1.489672873612E+01  1.507548948096E+01  1.525639535473E+01
  1.543947209899E+01  1.562474576417E+01  1.581224271334E+01  1.600198962590E+01
  1.619401350141E+01  1.638834166343E+01  1.658500176339E+01  1.678402178455E+01
  1.698543004597E+01  1.718925520652E+01  1.739552626900E+01  1.760427258423E+01
  1.781552385524E+01  1.802931014150E+01  1.824566186320E+01  1.846460980556E+01
  1.868618512322E+01  1.891041934470E+01  1.913734437684E+01  1.936699250936E+01
  1.959939641947E+01  1.983458917651E+01  2.007260424662E+01  2.031347549758E+01
  2.055723720355E+01  2.080392405000E+01  2.105357113860E+01  2.130621399226E+01
  2.156188856017E+01  2.182063122289E+01  2.208247879756E+01  2.234746854313E+01
  2.261563816565E+01  2.288702582364E+01  2.316167013352E+01  2.343961017513E+01
  2.372088549723E+01  2.400553612319E+01  2.429360255667E+01  2.458512578735E+01
  2.488014729680E+01  2.517870906436E+01  2.548085357313E+01  2.578662381601E+01
  2.609606330180E+01  2.640921606143E+01  2.672612665416E+01  2.704684017401E+01
  2.737140225610E+01  2.769985908317E+01  2.803225739217E+01  2.836864448088E+01
  2.870906821465E+01  2.905357703323E+01  2.940221995762E+01  2.975504659712E+01
  3.011210715628E+01  3.047345244216E+01  3.083913387146E+01  3.120920347792E+01
  3.158371391965E+01  3.196271848669E+01  3.234627110853E+01  3.273442636183E+01
  3.312723947817E+01  3.352476635191E+01  3.392706354814E+01  3.433418831071E+01
  3.474619857044E+01  3.516315295329E+01  3.558511078873E+01  3.601213211819E+01
  3.644427770361E+01  3.688160903605E+01  3.732418834449E+01  3.777207860462E+01
  3.822534354788E+01  3.868404767045E+01  3.914825624250E+01  3.961803531741E+01
  4.009345174121E+01  4.057457316211E+01  4.106146804005E+01  4.155420565653E+01
  4.205285612441E+01  4.255749039791E+01  4.306818028268E+01  4.358499844607E+01
  4.410801842743E+01
</grid-data>
</grid>
<valence-charge total-charge="20" is-unscreening-charge="yes"
 rescaled-to-z-pseudo="no">
<radfunc>
<data npts="457">
  7.084437383448E+00  7.086221713780E+00  7.091555702674E+00  7.100454801012E+00
  7.112827966805E+00  7.129098025606E+00  7.149835089551E+00  7.173582299666E+00
  7.203077254206E+00  7.234968426077E+00  7.270917464493E+00  7.309994156500E+00
  7.357223918815E+00  7.406554172926E+00  7.455837247463E+00  7.512608254615E+00
  7.577987213067E+00  7.639964390235E+00  7.709643465281E+00  7.787959140816E+00
  7.875953220869E+00  7.954091777906E+00  8.039816234687E+00  8.133835019753E+00
  8.236916413687E+00  8.349892115940E+00  8.473660632647E+00  8.574149644897E+00
  8.681688032391E+00  8.796734398522E+00  8.919771070835E+00  9.051304202876E+00
  9.191863616982E+00  9.342002326837E+00  9.502295667941E+00  9.673339951901E+00
  9.855750546586E+00  1.005015926851E+01  1.018674873774E+01  1.032915052916E+01
  1.047755907444E+01  1.063216901960E+01  1.079317429105E+01  1.096076702527E+01
  1.113513634792E+01  1.131646698731E+01  1.150493770609E+01  1.170071953381E+01
  1.190397378236E+01  1.211484982518E+01  1.233348262036E+01  1.255998995732E+01
  1.279446940626E+01  1.303699494927E+01  1.328761327268E+01  1.354633970041E+01
  1.381315374985E+01  1.408799429336E+01  1.437075431137E+01  1.466127522698E+01
  1.495934081664E+01  1.526467069796E+01  1.557691340340E+01  1.589563905849E+01
  1.622033169486E+01  1.655038124247E+01  1.688507526218E+01  1.705391124374E+01
  1.722359049925E+01  1.739399140834E+01  1.756498436112E+01  1.773643149708E+01
  1.790818644862E+01  1.808009409080E+01  1.825199029893E+01  1.842370171597E+01
  1.859504553152E+01  1.876582927483E+01  1.893585062390E+01  1.910489723328E+01
  1.927274658318E+01  1.943916585276E+01  1.960391182043E+01  1.976673079458E+01
  1.992735857776E+01  2.008552046802E+01  2.024093130093E+01  2.039329553605E+01
  2.054230739181E+01  2.068765103269E+01  2.082900081289E+01  2.096602158064E+01
  2.109836904714E+01  2.122569022465E+01  2.134762393753E+01  2.146380141049E+01
  2.157384693784E+01  2.167737863753E+01  2.177400929349E+01  2.186334728918E+01
  2.194499763546E+01  2.201856309471E+01  2.208364540319E+01  2.213984659248E+01
  2.218677041064E+01  2.222402384232E+01  2.225121872660E+01  2.226797347015E+01
  2.227391485211E+01  2.226867991596E+01  2.225191794257E+01  2.222329249674E+01
  2.218248353879E+01  2.212918959070E+01  2.206312994502E+01  2.198404690343E+01
  2.189170802981E+01  2.178590840169E+01  2.166647284220E+01  2.153325811328E+01
  2.138615504981E+01  2.122509061325E+01  2.105002984216E+01  2.086097767674E+01
  2.065798063382E+01  2.044112830857E+01  2.021055467972E+01  1.996643919520E+01
  1.970900761635E+01  1.943853259998E+01  1.915533399938E+01  1.885977886721E+01
  1.855228114612E+01  1.823330103521E+01  1.790334402411E+01  1.756295958945E+01
  1.721273955255E+01  1.685331610053E+01  1.648535947741E+01  1.610957535533E+01
  1.572670189989E+01  1.533750654758E+01  1.494278251619E+01  1.454334507275E+01
  1.414002758568E+01  1.373367739055E+01  1.332515150042E+01  1.291531219293E+01
  1.250502250722E+01  1.209514168402E+01  1.168652058208E+01  1.127999710378E+01
  1.087639166185E+01  1.047650271859E+01  1.008110242782E+01  9.690932409147E+00
  9.306699683539E+00  8.929072798807E+00  8.558678173463E+00  8.196096687837E+00
  7.841860551724E+00  7.496450478623E+00  7.160293197312E+00  6.833759332177E+00
  6.517161683945E+00  6.210753942157E+00  5.914729859605E+00  5.629222916762E+00
  5.354306500870E+00  5.089994619655E+00  4.836243163583E+00  4.592952826731E+00
  4.359977116794E+00  4.137133381767E+00  3.924207782759E+00  3.720957652385E+00
  3.527115741450E+00  3.342393803183E+00  3.166486246271E+00  2.999074456151E+00
  2.839833746782E+00  2.688441273555E+00  2.544577351625E+00  2.407926742524E+00
  2.278179677337E+00  2.155032766284E+00  2.038189765322E+00  1.927362217890E+00
  1.822269978708E+00  1.722641629909E+00  1.628214798505E+00  1.538736384144E+00
  1.453962705825E+00  1.373659575901E+00  1.297602309339E+00  1.225575675779E+00
  1.157373801535E+00  1.092800028223E+00  1.031666734257E+00  9.737951249931E-01
  9.190149968709E-01  8.671644804310E-01  8.180897666711E-01  7.716448207753E-01
  7.276910868439E-01  6.860971868677E-01  6.467386168188E-01  6.094974423846E-01
  5.742619965462E-01  5.409265808966E-01  5.093911723173E-01  4.795611363669E-01
  4.513469485042E-01  4.246639240484E-01  3.994319575852E-01  3.755752723532E-01
  3.530221799886E-01  3.317048508652E-01  3.115590951512E-01  2.925241545909E-01
  2.745425049365E-01  2.575596688712E-01  2.415240392034E-01  2.263867120583E-01
  2.121013297472E-01  1.986239329641E-01  1.859128219307E-01  1.739284260948E-01
  1.626331819741E-01  1.519914187309E-01  1.419692510651E-01  1.325344790114E-01
  1.236564942394E-01  1.153061924596E-01  1.074558915564E-01  1.000792550784E-01
  9.315122073800E-02  8.664793358440E-02  8.054668353617E-02  7.482584697049E-02
  6.946483211450E-02  6.444402792863E-02  5.974475628626E-02  5.534922719755E-02
  5.124049686928E-02  4.740242840091E-02  4.381965492993E-02  4.047754505017E-02
  3.736217033634E-02  3.446027481634E-02  3.175924624057E-02  2.924708900343E-02
  2.691239857898E-02  2.474433733790E-02  2.273261161933E-02  2.086744993702E-02
  1.913958220584E-02  1.754021988216E-02  1.606103691927E-02  1.469415144746E-02
  1.343210809747E-02  1.226786089557E-02  1.119475666778E-02  1.020651890090E-02
  9.297232017119E-03  8.461326028333E-03  7.693561544657E-03  6.989015119591E-03
  6.343064921158E-03  5.751376724389E-03  5.209890225623E-03  4.714805683086E-03
  4.262570891360E-03  3.849868499484E-03  3.473603683743E-03  3.130892186737E-03
  2.819048734177E-03  2.535575840119E-03  2.278153010163E-03  2.044626350536E-03
  1.832998589137E-03  1.641419512555E-03  1.468176820891E-03  1.311687400044E-03
  1.170489008912E-03  1.043232376887E-03  9.286737050938E-04  8.256675629919E-04
  7.331601704360E-04  6.501830539057E-04  5.758470645079E-04  5.093367444642E-04
  4.499050281595E-04  3.968682633965E-04  3.496015382829E-04  3.075342991474E-04
  2.701462450111E-04  2.369634844055E-04  2.075549407055E-04  1.815289926075E-04
  1.585303369014E-04  1.382370612430E-04  1.203579152126E-04  1.046297685221E-04
  9.081524580210E-05  7.870052794889E-05  6.809331053192E-05  5.882091025249E-05
  5.072851090055E-05  4.367754068047E-05  3.754417316821E-05  3.221794452499E-05
  2.760047992862E-05  2.360432249718E-05  2.015185827394E-05  1.717433112050E-05
  1.461094163066E-05  1.240802443298E-05  1.051829849772E-05  8.900185305520E-06
  7.517189972967E-06  6.337340663779E-06  5.332681845787E-06  4.478817182192E-06
  3.754498071536E-06  3.141254073823E-06  2.623061679876E-06  2.186048096853E-06
  1.818226934173E-06  1.509262880306E-06  1.250262661280E-06  1.033589765736E-06
  8.527006083712E-07  7.019999830842E-07  5.767138287068E-07  4.727774934954E-07
  3.867378393323E-07  3.156676726706E-07  2.570911265855E-07  2.089187468714E-07
  1.693911550240E-07  1.370302723244E-07  1.105971923113E-07  8.905588393511E-08
  7.154199495743E-08  5.733610501053E-08  4.584085054766E-08  3.656141006811E-08
  2.908889789754E-08  2.308626884500E-08  1.827638464906E-08  1.443193666912E-08
  1.136695816585E-08  8.929694130294E-09  6.996627330963E-09  5.467486403413E-09
  4.261085740586E-09  3.311867967389E-09  2.567038193476E-09  1.984195306673E-09
  1.529379548548E-09  1.175467735598E-09  9.008579671693E-10  6.883946882122E-10
  5.244927270043E-10  3.984255634737E-10  3.017487450373E-10  2.278341812050E-10
  1.714951288556E-10  1.286851274888E-10  9.625704652649E-11  7.177084278711E-11
  5.334066378828E-11  3.951363099947E-11  2.917404817337E-11  2.146794827004E-11
  1.574385555976E-11  1.147707892146E-11  8.360273934706E-12  6.068474552331E-12
  4.389250162286E-12  3.163257555181E-12  2.271399935282E-12  1.624982448418E-12
  1.158192332068E-12  8.223758234549E-13  5.816986682548E-13  4.098680754392E-13
  2.876658815142E-13  2.010993005305E-13  1.400200257095E-13  9.709711497549E-14
  6.705605682290E-14  4.611730085216E-14  3.158365174237E-14  2.153830568452E-14
  1.462477979434E-14  9.887200471036E-15  6.654889897313E-15  4.459323583233E-15
  2.974640214628E-15  1.975212069316E-15  1.305518531327E-15  8.588519024680E-16
  5.623349383597E-16  3.664280521950E-16  2.376152111317E-16  1.533297247599E-16
  9.845085064445E-17  6.289667491770E-17  3.997834220362E-17  2.528041635897E-17
  1.590300354204E-17  9.951359176514E-18  6.193932268691E-18  3.834453417826E-18
  2.360832999569E-18  1.445517444112E-18  8.801340309165E-19  5.328592209957E-19
  3.207633851781E-19  1.919710757947E-19  1.142181788100E-19  6.755421176512E-20
  3.971516470690E-20  2.320681972722E-20  1.347716062167E-20  7.778081235873E-21
  4.460722233382E-21  2.541928482183E-21  1.439175386529E-21  0.000000000000E+00
  0.000000000000E+00  0.000000000000E+00  0.000000000000E+00  0.000000000000E+00
  0.000000000000E+00  0.000000000000E+00  0.000000000000E+00  0.000000000000E+00
  0.000000000000E+00  0.000000000000E+00  0.000000000000E+00  0.000000000000E+00
  0.000000000000E+00  0.000000000000E+00  0.000000000000E+00  0.000000000000E+00
  0.000000000000E+00  0.000000000000E+00  0.000000000000E+00  0.000000000000E+00
  0.000000000000E+00  0.000000000000E+00  0.000000000000E+00  0.000000000000E+00
  0.000000000000E+00
</data>
</radfunc>
</valence-charge>
<pseudocore-charge matching-radius="0.764087853819"
 number-of-continuous-derivatives="4">
<annotation model-charge-form="Teter function with specified parameters" />
<radfunc>
<data npts="290">
  1.152512896076E+02  1.152428598936E+02  1.152176610822E+02  1.151756222665E+02
  1.151171769167E+02  1.150403327720E+02  1.149424045503E+02  1.148302801238E+02
  1.146910450391E+02  1.145405326204E+02  1.143709111987E+02  1.141865826497E+02
  1.139638643714E+02  1.137313205059E+02  1.134990789301E+02  1.132316484744E+02
  1.129237951501E+02  1.126320823364E+02  1.123042572999E+02  1.119359699379E+02
  1.115223784767E+02  1.111552901781E+02  1.107527522429E+02  1.103114848849E+02
  1.098279349938E+02  1.092982598116E+02  1.087183111236E+02  1.082476819565E+02
  1.077442594804E+02  1.072059275831E+02  1.066304595754E+02  1.060155165842E+02
  1.053586467160E+02  1.046572851558E+02  1.039087553902E+02  1.031102717676E+02
  1.022589436342E+02  1.013517813149E+02  1.007144696110E+02  1.000500421197E+02
  9.935755151299E+01  9.863603821036E+01  9.788453263934E+01  9.710205781512E+01
  9.628763226521E+01  9.544027332580E+01  9.455900083736E+01  9.364284126788E+01
  9.269083229200E+01  9.170202785481E+01  9.067550374860E+01  8.961036373012E+01
  8.850574620478E+01  8.736083150240E+01  8.617484976669E+01  8.494708947726E+01
  8.367690661908E+01  8.236373450893E+01  8.100709428227E+01  7.960660603635E+01
  7.816200061644E+01  7.667313202176E+01  7.513999039534E+01  7.356271554838E+01
  7.194161095368E+01  7.027715812508E+01  6.857003127983E+01  6.770073213249E+01
  6.682111215905E+01  6.593131643625E+01  6.503150485727E+01  6.412185258302E+01
  6.320255048605E+01  6.227380558515E+01  6.133584146866E+01  6.038889870431E+01
  5.943323523351E+01  5.846912674748E+01  5.749686704297E+01  5.651676835480E+01
  5.552916166251E+01  5.453439696832E+01  5.353284354335E+01  5.252489013900E+01
  5.151094516037E+01  5.049143679836E+01  4.946681311700E+01  4.843754209271E+01
  4.740411160167E+01  4.636702935201E+01  4.532682275691E+01  4.428403874502E+01
  4.323924350460E+01  4.219302215759E+01  4.114597836002E+01  4.009873382524E+01
  3.905192776646E+01  3.800621625516E+01  3.696227149239E+01  3.592078098972E+01
  3.488244665721E+01  3.384798379582E+01  3.281811999215E+01  3.179359391355E+01
  3.077515400223E+01  2.976355706747E+01  2.875956677525E+01  2.776395203554E+01
  2.677748528790E+01  2.580094068659E+01  2.483509218752E+01  2.388071153946E+01
  2.293856618357E+01  2.200941706534E+01  2.109401636468E+01  2.019310515020E+01
  1.930741096536E+01  1.843764535454E+01  1.758450133873E+01  1.674865085115E+01
  1.593074214452E+01  1.513139718255E+01  1.435120902950E+01  1.359073925253E+01
  1.285051535276E+01  1.213102824171E+01  1.143272978097E+01  1.075603040355E+01
  1.010129683608E+01  9.468849941939E+00  8.858962705338E+00  8.271858377234E+00
  7.707708803662E+00  7.166632957235E+00  6.648695692192E+00  6.153906742854E+00
  5.682219984582E+00  5.233532975272E+00  4.807686794095E+00  4.404466192556E+00
  4.023600071015E+00  3.664762291578E+00  3.327572835717E+00  3.011599312135E+00
  2.716358817241E+00  2.441320147211E+00  2.185906356933E+00  1.949497657247E+00
  1.731434637855E+00  1.531021799029E+00  1.347531371016E+00  1.180207395665E+00
  1.028270040589E+00  8.909201119709E-01  7.673437282024E-01  6.567171128259E-01
  5.582114619605E-01  4.709978385087E-01  3.942520431284E-01  3.271594102603E-01
  2.689194765208E-01  2.187504685818E-01  1.758935583187E-01  1.396168345807E-01
  1.092189434523E-01  8.403235235739E-02  6.342619780563E-02  4.680868196868E-02
  3.362898955527E-02  2.337870355295E-02  1.559270621632E-02  9.849560077000E-03
  5.771372572607E-03  3.023156957639E-03  1.311711265061E-03  3.840460112553E-04
  2.539984440069E-05  5.689018626028E-05  3.328528697125E-04  7.379305983513E-04
  1.183974537205E-03  1.606826299487E-03  1.963048874142E-03  2.226674539040E-03
  2.386035474576E-03  2.440738641887E-03  2.398840593574E-03  2.274270385045E-03
  2.084539861045E-03  1.848770578673E-03  1.586055826664E-03  1.314164990325E-03
  1.048586305604E-03  8.018932757771E-04  5.834101202428E-04  3.991429952868E-04
  2.519367360033E-04  1.418118169767E-04  6.643333230659E-05  2.166316790151E-05
  2.148182403338E-06  1.901010115569E-06  1.483581356411E-05  3.522859768989E-05
  5.808011006052E-05  7.936837817136E-05  9.618702053225E-05  1.067740509286E-04
  1.104434446818E-04  1.074377915404E-04  9.872456725995E-05  8.576069564133E-05
  7.025008170876E-05  5.391677725862E-05  3.831265598891E-05  2.467333351400E-05
  1.383008512869E-05  6.179275030034E-06  1.704912368311E-06  4.494644710771E-08
  5.882618033441E-07  2.587343957824E-06  5.271388156798E-06  7.946149707214E-06
  1.006982754440E-05  1.129831084202E-05  1.149766486537E-05  1.072619909749E-05
  9.192282664894E-06  7.196779776779E-06  5.070260780963E-06  3.114894683407E-06
  1.559257898288E-06  5.315172855955E-07  5.303734585017E-08  0.000000000000E+00
  0.000000000000E+00  0.000000000000E+00  0.000000000000E+00  0.000000000000E+00
  0.000000000000E+00  0.000000000000E+00  0.000000000000E+00  0.000000000000E+00
  0.000000000000E+00  0.000000000000E+00  0.000000000000E+00  0.000000000000E+00
  0.000000000000E+00  0.000000000000E+00  0.000000000000E+00  0.000000000000E+00
  0.000000000000E+00  0.000000000000E+00  0.000000000000E+00  0.000000000000E+00
  0.000000000000E+00  0.000000000000E+00  0.000000000000E+00  0.000000000000E+00
  0.000000000000E+00  0.000000000000E+00  0.000000000000E+00  0.000000000000E+00
  0.000000000000E+00  0.000000000000E+00  0.000000000000E+00  0.000000000000E+00
  0.000000000000E+00  0.000000000000E+00  0.000000000000E+00  0.000000000000E+00
  0.000000000000E+00  0.000000000000E+00  0.000000000000E+00  0.000000000000E+00
  0.000000000000E+00  0.000000000000E+00  0.000000000000E+00  0.000000000000E+00
  0.000000000000E+00  0.000000000000E+00  0.000000000000E+00  0.000000000000E+00
  0.000000000000E+00  0.000000000000E+00  0.000000000000E+00  0.000000000000E+00
  0.000000000000E+00  0.000000000000E+00
</data>
</radfunc>
</pseudocore-charge>
<semilocal-potentials set="scalar_relativistic">
<slps n="5" l="s" rc="1.60079261207" eref="-4.34552335703">
<radfunc>
<data npts="290">
 -1.970278850686E+01 -1.970321813332E+01 -1.970450222573E+01 -1.970664393398E+01
 -1.970962040560E+01 -1.971353196342E+01 -1.971851359669E+01 -1.972421305028E+01
 -1.973128412272E+01 -1.973891986837E+01 -1.974751502208E+01 -1.975684337662E+01
 -1.976809778230E+01 -1.977982913023E+01 -1.979152527089E+01 -1.980496887329E+01
 -1.982041173323E+01 -1.983501254149E+01 -1.985138319401E+01 -1.986972686467E+01
 -1.989026700283E+01 -1.990844439991E+01 -1.992831954665E+01 -1.995003759277E+01
 -1.997375327966E+01 -1.999963095053E+01 -2.002784438935E+01 -2.005064698579E+01
 -2.007494641585E+01 -2.010082541587E+01 -2.012836888412E+01 -2.015766351346E+01
 -2.018879733375E+01 -2.022185915089E+01 -2.025693786890E+01 -2.029412167961E+01
 -2.033349710381E+01 -2.037514786635E+01 -2.040421864963E+01 -2.043435846824E+01
 -2.046558826535E+01 -2.049792741067E+01 -2.053139343410E+01 -2.056600173604E+01
 -2.060176527323E+01 -2.063869421880E+01 -2.067679559554E+01 -2.071607288115E+01
 -2.075652558452E+01 -2.079814879202E+01 -2.084093268313E+01 -2.088486201438E+01
 -2.092991557149E+01 -2.097606558888E+01 -2.102327713682E+01 -2.107150747599E+01
 -2.112070537993E+01 -2.117081042610E+01 -2.122175225644E+01 -2.127344980892E+01
 -2.132581052173E+01 -2.137872951257E+01 -2.143208873553E+01 -2.148575611907E+01
 -2.153958468875E+01 -2.159341167930E+01 -2.164705764111E+01 -2.167375187618E+01
 -2.170032554696E+01 -2.172675113311E+01 -2.175299990559E+01 -2.177904189985E+01
 -2.180484588950E+01 -2.183037936037E+01 -2.185560848520E+01 -2.188049809899E+01
 -2.190501167502E+01 -2.192911130174E+01 -2.195275766057E+01 -2.197591000469E+01
 -2.199852613897E+01 -2.202056240104E+01 -2.204197364381E+01 -2.206271321931E+01
 -2.208273296419E+01 -2.210198318679E+01 -2.212041265609E+01 -2.213796859264E+01
 -2.215459666145E+01 -2.217024096718E+01 -2.218484405171E+01 -2.219834689417E+01
 -2.221068891365E+01 -2.222180797479E+01 -2.223164039628E+01 -2.224012096263E+01
 -2.224718293914E+01 -2.225275809048E+01 -2.225677670293E+01 -2.225916761042E+01
 -2.225985822472E+01 -2.225877456980E+01 -2.225584132058E+01 -2.225098184638E+01
 -2.224411825911E+01 -2.223517146642E+01 -2.222406123012E+01 -2.221070622989E+01
 -2.219502413260E+01 -2.217693166735E+01 -2.215634470649E+01 -2.213317835279E+01
 -2.210734703286E+01 -2.207876459723E+01 -2.204734442704E+01 -2.201299954771E+01
 -2.197564274981E+01 -2.193518671724E+01 -2.189154416299E+01 -2.184462797289E+01
 -2.179435135741E+01 -2.174062801191E+01 -2.168337228575E+01 -2.162249936055E+01
 -2.155792543801E+01 -2.148956793789E+01 -2.141734570654E+01 -2.134117923673E+01
 -2.126099089936E+01 -2.117670518782E+01 -2.108824897595E+01 -2.099555179035E+01
 -2.089854609824E+01 -2.079716761192E+01 -2.069135561094E+01 -2.058105328351E+01
 -2.046620808826E+01 -2.034677213807E+01 -2.022270260743E+01 -2.009396216492E+01
 -1.996051943272E+01 -1.982234947493E+01 -1.967943431672E+01 -1.953176349652E+01
 -1.937933465376E+01 -1.922215415479E+01 -1.906023776056E+01 -1.889361133962E+01
 -1.872231163152E+01 -1.854638706648E+01 -1.836589864886E+01 -1.818092091398E+01