<?xml version="1.0" encoding="UTF-8" ?>
<psml version="1.1" energy_unit="hartree" length_unit="bohr"
 uuid="504f5940-1d65-11e8-5cd3-487afdfbc4a5"
 xmlns="http://esl.cecam.org/PSML/ns/1.1">
<provenance creator="ONCVPSP-3.3.0+psml-3.3.0-73 (scalar-relativistic)"
 date="2018-03-01">
<annotation action="semilocal-pseudopotential-generation"
 action-cont="projectors-generation" />
<input-file name="oncvpsp-input">
<![CDATA[# atsym z nc nv iexc psfile
V 23 3 4 -116133 upf
# n l f
1 0 2.0
2 0 2.0
2 1 6.0
3 0 2.0
3 1 6.0
3 2 3.0
4 0 2.0
# lmax
2
# l rc ep ncon nbas qcut
0 1.3 0.0 4 8 9.0
1 1.3 0.0 4 7 9.0
2 1.65 0.0 4 8 9.0
# lloc lpopt rc5 dvloc0
4 5 1.2 0.0
# l nproj debl
0 2 1.0
1 2 1.5
2 2 1.5
# icmod fcfact
3 5 1.3
# epsh1 epsh2 depsh
-12.0 12.0 0.02
# rlmax drl
6.0 0.01
 0
]]>
</input-file>
</provenance>
<pseudo-atom-spec atomic-label="V" atomic-number="23" z-pseudo="13"
 flavor="Hamann&apos;s oncvpsp" relativity="scalar" spin-dft="no"
 core-corrections="yes">
<annotation pseudo-energy="-71.1156834559" />
<exchange-correlation>
<annotation oncvpsp-xc-code="-116133" oncvpsp-xc-type="libxc-interface" />
<libxc-info number-of-functionals="2">
<functional name="Perdew, Burke &amp; Ernzerhof SOL (GGA)" type="exchange"
 id="116" />
<functional name="Perdew, Burke &amp; Ernzerhof SOL (GGA)" type="correlation"
 id="133" />
</libxc-info>
</exchange-correlation>
<valence-configuration total-valence-charge="13">
<shell n="3" l="s" occupation="2" />
<shell n="3" l="p" occupation="6" />
<shell n="3" l="d" occupation="3" />
<shell n="4" l="s" occupation="2" />
</valence-configuration>
</pseudo-atom-spec>
<grid npts="458">
<annotation type="sampled from oncvpsp log grid"
 recipe="r(i:1..N) = r1*exp(a*(i-1)) + r=0; resampled"
 recipe-cont="r1: scale; a: step" scale="0.217391304348E-04"
 step="0.119285708653E-01" delta="0.500000000000E-02" rmax="44.3717337047" />
<grid-data>
  0.000000000000E+00  5.006749579795E-03  1.012059644248E-02  1.518250849851E-02
  2.021509715797E-02  2.535744957628E-02  3.068977967623E-02  3.583772504718E-02
  4.086260699098E-02  4.603956332018E-02  5.125730973400E-02  5.638971612822E-02
  6.203603157331E-02  6.743845247288E-02  7.244203985812E-02  7.781686777164E-02
  8.359048035711E-02  8.872773260121E-02  9.418070692882E-02  9.996880679323E-02
  1.061126281332E-01  1.112984512452E-01  1.167377103696E-01  1.224427911608E-01
  1.284266845717E-01  1.347030164349E-01  1.412860784904E-01  1.464336570443E-01
  1.517687810751E-01  1.572982835637E-01  1.630292464419E-01  1.689690096628E-01
  1.751251806013E-01  1.815056437973E-01  1.881185710538E-01  1.949724319034E-01
  2.020760044548E-01  2.094383866365E-01  2.144950670434E-01  2.196738359421E-01
  2.249776410371E-01  2.304095012023E-01  2.359725081993E-01  2.416698284373E-01
  2.475047047751E-01  2.534804583672E-01  2.596004905540E-01  2.658682847979E-01
  2.722874086661E-01  2.788615158609E-01  2.855943482999E-01  2.924897382452E-01
  2.995516104854E-01  3.067839845690E-01  3.141909770924E-01  3.217768040433E-01
  3.295457832001E-01  3.375023365897E-01  3.456509930043E-01  3.539963905794E-01
  3.625432794336E-01  3.712965243722E-01  3.802611076567E-01  3.894421318399E-01
  3.988448226711E-01  4.084745320697E-01  4.183367411719E-01  4.233567820660E-01
  4.284370634508E-01  4.335783082122E-01  4.387812479108E-01  4.440466228857E-01
  4.493751823603E-01  4.547676845486E-01  4.602248967632E-01  4.657475955244E-01
  4.713365666707E-01  4.769926054707E-01  4.827165167364E-01  4.885091149372E-01
  4.943712243165E-01  5.003036790082E-01  5.063073231563E-01  5.123830110342E-01
  5.185316071666E-01  5.247539864526E-01  5.310510342901E-01  5.374236467015E-01
  5.438727304620E-01  5.503992032275E-01  5.570039936662E-01  5.636880415902E-01
  5.704522980893E-01  5.772977256664E-01  5.842252983744E-01  5.912360019549E-01
  5.983308339783E-01  6.055108039861E-01  6.127769336339E-01  6.201302568375E-01
  6.275718199196E-01  6.351026817586E-01  6.427239139397E-01  6.504366009070E-01
  6.582418401179E-01  6.661407421993E-01  6.741344311057E-01  6.822240442789E-01
  6.904107328103E-01  6.986956616040E-01  7.070800095433E-01  7.155649696578E-01
  7.241517492937E-01  7.328415702852E-01  7.416356691286E-01  7.505352971582E-01
  7.595417207241E-01  7.686562213727E-01  7.778800960292E-01  7.872146571816E-01
  7.966612330677E-01  8.062211678646E-01  8.158958218789E-01  8.256865717415E-01
  8.355948106024E-01  8.456219483296E-01  8.557694117096E-01  8.660386446501E-01
  8.764311083859E-01  8.869482816865E-01  8.975916610667E-01  9.083627609995E-01
  9.192631141315E-01  9.302942715011E-01  9.414578027591E-01  9.527552963922E-01
  9.641883599490E-01  9.757586202683E-01  9.874677237116E-01  9.993173363961E-01
  1.011309144433E+00  1.023444854166E+00  1.035726192416E+00  1.048154906725E+00
  1.060732765606E+00  1.073461558793E+00  1.086343097499E+00  1.099379214668E+00
  1.112571765245E+00  1.125922626427E+00  1.139433697945E+00  1.153106902320E+00
  1.166944185148E+00  1.180947515370E+00  1.195118885554E+00  1.209460312181E+00
  1.223973835927E+00  1.238661521958E+00  1.253525460221E+00  1.268567765744E+00
  1.283790578933E+00  1.299196065880E+00  1.314786418671E+00  1.330563855695E+00
  1.346530621963E+00  1.362688989427E+00  1.379041257300E+00  1.395589752387E+00
  1.412336829416E+00  1.429284871369E+00  1.446436289825E+00  1.463793525303E+00
  1.481359047607E+00  1.499135356178E+00  1.517124980452E+00  1.535330480218E+00
  1.553754445980E+00  1.572399499332E+00  1.591268293324E+00  1.610363512844E+00
  1.629687874998E+00  1.649244129498E+00  1.669035059052E+00  1.689063479761E+00
  1.709332241518E+00  1.729844228416E+00  1.750602359157E+00  1.771609587467E+00
  1.792868902517E+00  1.814383329347E+00  1.836155929299E+00  1.858189800451E+00
  1.880488078056E+00  1.903053934993E+00  1.925890582213E+00  1.949001269199E+00
  1.972389284430E+00  1.996057955843E+00  2.020010651313E+00  2.044250779129E+00
  2.068781788478E+00  2.093607169940E+00  2.118730455979E+00  2.144155221451E+00
  2.169885084108E+00  2.195923705118E+00  2.222274789579E+00  2.248942087054E+00
  2.275929392099E+00  2.303240544804E+00  2.330879431341E+00  2.358849984518E+00
  2.387156184332E+00  2.415802058544E+00  2.444791683246E+00  2.474129183445E+00
  2.503818733647E+00  2.533864558450E+00  2.564270933152E+00  2.595042184350E+00
  2.626182690562E+00  2.657696882848E+00  2.689589245443E+00  2.721864316388E+00
  2.754526688185E+00  2.787581008443E+00  2.821031980544E+00  2.854884364311E+00
  2.889142976682E+00  2.923812692403E+00  2.958898444711E+00  2.994405226048E+00
  3.030338088761E+00  3.066702145826E+00  3.103502571576E+00  3.140744602434E+00
  3.178433537664E+00  3.216574740116E+00  3.255173636997E+00  3.294235720641E+00
  3.333766549289E+00  3.373771747880E+00  3.414257008855E+00  3.455228092961E+00
  3.496690830077E+00  3.538651120037E+00  3.581114933478E+00  3.624088312680E+00
  3.667577372432E+00  3.711588300901E+00  3.756127360512E+00  3.801200888838E+00
  3.846815299504E+00  3.892977083098E+00  3.939692808095E+00  3.986969121792E+00
  4.034812751254E+00  4.083230504269E+00  4.132229270320E+00  4.181816021564E+00
  4.231997813823E+00  4.282781787589E+00  4.334175169040E+00  4.386185271068E+00
  4.438819494321E+00  4.492085328253E+00  4.545990352192E+00  4.600542236418E+00
  4.655748743255E+00  4.711617728174E+00  4.768157140912E+00  4.825375026603E+00
  4.883279526922E+00  4.941878881246E+00  5.001181427821E+00  5.061195604954E+00
  5.121929952214E+00  5.183393111640E+00  5.245593828980E+00  5.308540954928E+00
  5.372243446387E+00  5.436710367744E+00  5.501950892157E+00  5.567974302862E+00
  5.634789994497E+00  5.702407474431E+00  5.770836364124E+00  5.840086400493E+00
  5.910167437299E+00  5.981089446547E+00  6.052862519905E+00  6.125496870144E+00
  6.199002832586E+00  6.273390866577E+00  6.348671556976E+00  6.424855615660E+00
  6.501953883048E+00  6.579977329644E+00  6.658937057600E+00  6.738844302291E+00
  6.819710433919E+00  6.901546959126E+00  6.984365522635E+00  7.068177908907E+00
  7.152996043814E+00  7.238831996339E+00  7.325697980295E+00  7.413606356059E+00
  7.502569632332E+00  7.592600467920E+00  7.683711673535E+00  7.775916213617E+00
  7.869227208181E+00  7.963657934679E+00  8.059221829895E+00  8.155932491854E+00
  8.253803681756E+00  8.352849325937E+00  8.453083517848E+00  8.554520520062E+00
  8.657174766303E+00  8.761060863499E+00  8.866193593861E+00  8.972587916987E+00
  9.080258971991E+00  9.189222079655E+00  9.299492744611E+00  9.411086657546E+00
  9.524019697437E+00  9.638307933806E+00  9.753967629011E+00  9.871015240560E+00
  9.989467423446E+00  1.010934103253E+01  1.023065312492E+01  1.035342096242E+01
  1.047766201397E+01  1.060339395813E+01  1.073063468563E+01  1.085940230186E+01
  1.098971512948E+01  1.112159171103E+01  1.125505081157E+01  1.139011142131E+01
  1.152679275836E+01  1.166511427146E+01  1.180509564272E+01  1.194675679043E+01
  1.209011787192E+01  1.223519928638E+01  1.238202167782E+01  1.253060593795E+01
  1.268097320921E+01  1.283314488772E+01  1.298714262637E+01  1.314298833789E+01
  1.330070419794E+01  1.346031264832E+01  1.362183640010E+01  1.378529843690E+01
  1.395072201814E+01  1.411813068236E+01  1.428754825055E+01  1.445899882955E+01
  1.463250681551E+01  1.480809689729E+01  1.498579406006E+01  1.516562358878E+01
  1.534761107185E+01  1.553178240471E+01  1.571816379356E+01  1.590678175909E+01
  1.609766314020E+01  1.629083509788E+01  1.648632511905E+01  1.668416102048E+01
  1.688437095273E+01  1.708698340416E+01  1.729202720501E+01  1.749953153147E+01
  1.770952590985E+01  1.792204022077E+01  1.813710470342E+01  1.835474995986E+01
  1.857500695938E+01  1.879790704289E+01  1.902348192740E+01  1.925176371053E+01
  1.948278487506E+01  1.971657829356E+01  1.995317723308E+01  2.019261535988E+01
  2.043492674420E+01  2.068014586513E+01  2.092830761551E+01  2.117944730689E+01
  2.143360067458E+01  2.169080388267E+01  2.195109352926E+01  2.221450665162E+01
  2.248108073143E+01  2.275085370021E+01  2.302386394461E+01  2.330015031195E+01
  2.357975211569E+01  2.386270914108E+01  2.414906165077E+01  2.443885039058E+01
  2.473211659527E+01  2.502890199441E+01  2.532924881835E+01  2.563319980417E+01
  2.594079820182E+01  2.625208778024E+01  2.656711283360E+01  2.688591818760E+01
  2.720854920586E+01  2.753505179633E+01  2.786547241788E+01  2.819985808690E+01
  2.853825638394E+01  2.888071546055E+01  2.922728404607E+01  2.957801145463E+01
  2.993294759208E+01  3.029214296319E+01  3.065564867875E+01  3.102351646289E+01
  3.139579866044E+01  3.177254824437E+01  3.215381882330E+01  3.253966464918E+01
  3.293014062497E+01  3.332530231247E+01  3.372520594022E+01  3.412990841150E+01
  3.453946731244E+01  3.495394092019E+01  3.537338821123E+01  3.579786886977E+01
  3.622744329621E+01  3.666217261576E+01  3.710211868715E+01  3.754734411140E+01
  3.799791224073E+01  3.845388718762E+01  3.891533383387E+01  3.938231783988E+01
  3.985490565396E+01  4.033316452181E+01  4.081716249607E+01  4.130696844602E+01
  4.180265206737E+01  4.230428389218E+01  4.281193529889E+01  4.332567852247E+01
  4.384558666474E+01  4.437173370472E+01
</grid-data>
</grid>
<valence-charge total-charge="13" is-unscreening-charge="yes"
 rescaled-to-z-pseudo="no">
<radfunc>
<data npts="458">
  2.765896836115E+00  2.768969754806E+00  2.778450881137E+00  2.794142169025E+00
  2.815952798452E+00  2.844621481024E+00  2.881142902515E+00  2.922940417200E+00
  2.969908268868E+00  3.024641350209E+00  3.086284557170E+00  3.153225717807E+00
  3.234043022171E+00  3.318348584097E+00  3.402465276365E+00  3.499228214477E+00
  3.610484722883E+00  3.715776051720E+00  3.833946767892E+00  3.966505000164E+00
  4.115116839220E+00  4.246792235938E+00  4.390934945364E+00  4.548643319527E+00
  4.721094468665E+00  4.909545707745E+00  5.115334843339E+00  5.281904234387E+00
  5.459647834761E+00  5.649214600617E+00  5.851274525300E+00  6.066516200570E+00
  6.295643630975E+00  6.539372173124E+00  6.798423454913E+00  7.073519111884E+00
  7.365373158984E+00  7.674682796404E+00  7.890918863276E+00  8.115400185448E+00
  8.348305655539E+00  8.589802017283E+00  8.840041459571E+00  9.099158961335E+00
  9.367269370553E+00  9.644464200783E+00  9.930808129120E+00  1.022633518026E+01
  1.053104458271E+01  1.084489628499E+01  1.116780612226E+01  1.149964062701E+01
  1.184021148184E+01  1.218926961732E+01  1.254649896472E+01  1.291150988096E+01
  1.328383227262E+01  1.366290845671E+01  1.404808580908E+01  1.443860926586E+01
  1.483361376069E+01  1.523211669951E+01  1.563301059629E+01  1.603505601683E+01
  1.643687500366E+01  1.683694518284E+01  1.723359478261E+01  1.743007261962E+01
  1.762499882459E+01  1.781812095087E+01  1.800917677804E+01  1.819789434149E+01
  1.838399199805E+01  1.856717853074E+01  1.874715329563E+01  1.892360641391E+01
  1.909621901220E+01  1.926466351452E+01  1.942860398880E+01  1.958769655126E+01
  1.974158983168E+01  1.988992550267E+01  2.003233887567E+01  2.016845956669E+01
  2.029791223417E+01  2.042031739136E+01  2.053529229535E+01  2.064245191445E+01
  2.074140997524E+01  2.083178009034E+01  2.091317696720E+01  2.098521769801E+01
  2.104752312976E+01  2.109971931335E+01  2.114143902945E+01  2.117232338826E+01
  2.119202349954E+01  2.120020220809E+01  2.119653588920E+01  2.118071629746E+01
  2.115245246124E+01  2.111147261411E+01  2.105752615347E+01  2.099038561534E+01
  2.090984865331E+01  2.081574000854E+01  2.070791345648E+01  2.058625371519E+01
  2.045067829891E+01  2.030113929992E+01  2.013762508071E+01  1.996016185805E+01
  1.976881515982E+01  1.956369113546E+01  1.934493770030E+01  1.911274549472E+01
  1.886734863873E+01  1.860902526376E+01  1.833809780388E+01  1.805493303000E+01
  1.775994181199E+01  1.745357859535E+01  1.713634058127E+01  1.680876660098E+01
  1.647143567833E+01  1.612496527698E+01  1.577000923221E+01  1.540725537051E+01
  1.503742282363E+01  1.466125904784E+01  1.427953656248E+01  1.389304942637E+01
  1.350260947380E+01  1.310904233621E+01  1.271318327893E+01  1.231587288561E+01
  1.191795262653E+01  1.152026034909E+01  1.112362573143E+01  1.072886574166E+01
  1.033678014658E+01  9.948147114024E+00  9.563718953196E+00  9.184218036387E+00
  8.810332944186E+00  8.442714874061E+00  8.081974349464E+00  7.728678263194E+00
  7.383347284790E+00  7.046453657210E+00  6.718419403183E+00  6.399614956360E+00
  6.090358226981E+00  5.790914106182E+00  5.501494407593E+00  5.222258239458E+00
  4.953312795429E+00  4.694714547288E+00  4.446470818085E+00  4.208541710288E+00
  3.980842361289E+00  3.763245496724E+00  3.555584250508E+00  3.357655998489E+00
  3.169229542971E+00  2.990054481638E+00  2.819863855598E+00  2.658376777290E+00
  2.505301007300E+00  2.360335483754E+00  2.223172775295E+00  2.093501448256E+00
  1.971008335514E+00  1.855380694472E+00  1.746308240848E+00  1.643485043947E+00
  1.546611267849E+00  1.455394741800E+00  1.369552342128E+00  1.288811167609E+00
  1.212909490510E+00  1.141597466911E+00  1.074637592382E+00  1.011804426732E+00
  9.528822293856E-01  8.976614182948E-01  8.459388837457E-01  7.975181987654E-01
  7.522098109356E-01  7.098311875878E-01  6.702069172553E-01  6.331687703198E-01
  5.985557218419E-01  5.662139395909E-01  5.359967402978E-01  5.077645171441E-01
  4.813846414590E-01  4.567313415390E-01  4.336855614107E-01  4.121348022441E-01
  3.919729489760E-01  3.731000845397E-01  3.554222939026E-01  3.388514599196E-01
  3.233050527983E-01  3.087059147731E-01  2.949820413981E-01  2.820663606966E-01
  2.698965112671E-01  2.584146203270E-01  2.475670825885E-01  2.373043407939E-01
  2.275806686868E-01  2.183539571588E-01  2.095855042690E-01  2.012398097995E-01
  1.932843749615E-01  1.856895078132E-01  1.784281348920E-01  1.714756194901E-01
  1.648095869333E-01  1.584097571445E-01  1.522577846988E-01  1.463371065042E-01
  1.406327971737E-01  1.351314320935E-01  1.298209581348E-01  1.246905719102E-01
  1.197306054341E-01  1.149324190123E-01  1.102883011581E-01  1.057913753099E-01
  1.014355131091E-01  9.721525398252E-02  9.312573076696E-02  8.916260110547E-02
  8.532198434413E-02  8.160040365537E-02  7.799473311635E-02  7.450214947275E-02
  7.112008832246E-02  6.784620445860E-02  6.467833611677E-02  6.161447287797E-02
  5.865272698545E-02  5.579130784114E-02  5.302849945495E-02  5.036264062842E-02
  4.779210766240E-02  4.531529938718E-02  4.293062432228E-02  4.063648978264E-02
  3.843129275714E-02  3.631341239579E-02  3.428120395175E-02  3.233299403556E-02
  3.046707704966E-02  2.868171268262E-02  2.697512435435E-02  2.534549851422E-02
  2.379098470600E-02  2.230969631579E-02  2.089971197827E-02  1.955907749868E-02
  1.828580832609E-02  1.707789249030E-02  1.593329396858E-02  1.484995644268E-02
  1.382580740549E-02  1.285876257538E-02  1.194673057283E-02  1.108761781045E-02
  1.027933354310E-02  9.519795021460E-03  8.806932688852E-03  8.138695359794E-03
  7.513055317922E-03  6.928013272317E-03  6.381603114050E-03  5.871896419127E-03
  5.397006649732E-03  4.955093012543E-03  4.544363940453E-03  4.163080172155E-03
  3.809557412233E-03  3.482168562504E-03  3.179345523000E-03  2.899580568081E-03
  2.641427309449E-03  2.403501263333E-03  2.184480043638E-03  1.983103206501E-03
  1.798171774402E-03  1.628547469893E-03  1.473151690039E-03  1.330964253088E-03
  1.201021948596E-03  1.082416921488E-03  9.742949192816E-04  8.758534301227E-04
  7.863397374367E-04  7.050489149170E-04  6.313217834028E-04  5.645428489355E-04
  5.041382390175E-04  4.495736518703E-04  4.003523313428E-04  3.560130780829E-04
  3.161283056991E-04  2.803021489054E-04  2.481686290908E-04  2.193898813835E-04
  1.936544460921E-04  1.706756263952E-04  1.501899133115E-04  1.319554782945E-04
  1.157507332519E-04  1.013729573618E-04  8.863698973700E-05  7.737398674892E-05
  6.743024265258E-05  5.866607203313E-05  5.095475251189E-05  4.418152609299E-05
  3.824265749127E-05  3.304454775084E-05  2.850290143749E-05  2.454194566212E-05
  2.109369916698E-05  1.809728967881E-05  1.549831770561E-05  1.324826492623E-05
  1.130394529590E-05  9.626996968558E-06  8.183413118666E-06  6.943109733262E-06
  5.879528440482E-06  4.969272443967E-06  4.191773644638E-06  3.528989052217E-06
  2.965124618636E-06  2.486384663841E-06  2.080745111030E-06  1.737748802236E-06
  1.448321225694E-06  1.204605052666E-06  9.998119522983E-07  8.280902277264E-07
  6.844068940093E-07  5.644428975907E-07  4.645002569316E-07  3.814199839286E-07
  3.125097249221E-07  2.554801378491E-07  2.083890978133E-07  1.695928965303E-07
  1.377036713513E-07  1.115523665509E-07  9.015659304368E-08  7.269281249597E-08
  5.847232783231E-08  4.692061435579E-08  3.755957409121E-08  2.999234082220E-08
  2.389030319752E-08  1.898205667659E-08  1.504400580918E-08  1.189243565899E-08
  9.376777395723E-09  7.373944255736E-09  5.783586370913E-09  4.524110472919E-09
  3.529352450876E-09  2.745805344434E-09  2.130316635084E-09  1.648180733181E-09
  1.253992011976E-09  9.649308234796E-10  7.403578041565E-10  5.663919355861E-10
  4.320241508259E-10  3.285488657769E-10  2.491025110534E-10  1.882900664590E-10
  1.418837458485E-10  1.065806484340E-10  7.980844794846E-11  5.957009068893E-11
  4.432006779947E-11  3.286616053119E-11  2.429166840274E-11  1.789405289881E-11
  1.313669282008E-11  9.611076844225E-12  7.007275931865E-12  5.090961431305E-12
  3.685579872960E-12  2.658575869132E-12  1.910781537678E-12  1.368273940934E-12
  9.761491207293E-13  6.937790417116E-13  4.912116283456E-13  3.464486426314E-13
  2.433951425212E-13  1.703207531418E-13  1.187094783364E-13  8.240331387256E-14
  5.696714286957E-14  3.921962563538E-14  2.688810481975E-14  1.835578301457E-14
  1.247726998332E-14  8.444576057476E-15  5.690168986210E-15  3.817144875326E-15
  2.549148528534E-15  1.694615692417E-15  1.121355125199E-15  7.385620299712E-16
  4.841482122578E-16  3.158585522067E-16  2.050713545485E-16  1.324921685855E-16
  8.517708168294E-17  5.448498352826E-17  3.467578317232E-17  2.195556768008E-17
  1.382946022484E-17  8.665245286760E-18  5.400626481100E-18  3.347860223091E-18
  2.064059906683E-18  1.265553919579E-18  7.716380048010E-19  4.678342842158E-19
  2.820242716523E-19  1.690312891289E-19  1.007172146368E-19  5.965759483491E-20
  3.512548096932E-20  2.055616174397E-20  1.195620360821E-20  6.911050176920E-21
  3.969737653175E-21  2.265759118974E-21  1.284891881766E-21  7.239135202197E-22
  4.051724918256E-22  2.252640221905E-22  1.243962542349E-22  6.822612111096E-23
  3.716092302688E-23  0.000000000000E+00  0.000000000000E+00  0.000000000000E+00
  0.000000000000E+00  0.000000000000E+00
</data>
</radfunc>
</valence-charge>
<pseudocore-charge matching-radius="0.500303679008"
 number-of-continuous-derivatives="4">
<annotation model-charge-form="Teter function with specified parameters" />
<radfunc>
<data npts="291">
  1.054662125135E+02  1.054464679516E+02  1.053855576625E+02  1.052847817864E+02
  1.051447687856E+02  1.049608434357E+02  1.047267239364E+02  1.044590370285E+02
  1.041585615974E+02  1.038088407995E+02  1.034155239405E+02  1.029890702937E+02
  1.024751415549E+02  1.019401056897E+02  1.014073606652E+02  1.007958685263E+02
  1.000945612981E+02  9.943260211070E+01  9.869168872137E+01  9.786310034822E+01
  9.693733953119E+01  9.611987774753E+01  9.522801858029E+01  9.425580656685E+01
  9.319698042383E+01  9.204499603117E+01  9.079306067191E+01  8.978431515143E+01
  8.871241174104E+01  8.757432126413E+01  8.636701266057E+01  8.508748002679E+01
  8.373277431982E+01  8.230004017052E+01  8.078655824196E+01  7.918979354355E+01
  7.750745006592E+01  7.573753202989E+01  7.450811306824E+01  7.323866357235E+01
  7.192890549870E+01  7.057867001917E+01  6.918790925110E+01  6.775670849139E+01
  6.628529889965E+01  6.477407055931E+01  6.322358582808E+01  6.163459286984E+01
  6.000803923832E+01  5.834508535993E+01  5.664711773777E+01  5.491576167252E+01
  5.315289326777E+01  5.136065045876E+01  4.954144277404E+01  4.769795951092E+01
  4.583317597734E+01  4.395035742736E+01  4.205306029452E+01  4.014513030961E+01
  3.823069707728E+01  3.631416468239E+01  3.440019790280E+01  3.249370362337E+01
  3.059980707835E+01  2.872382259796E+01  2.687121860262E+01  2.595542535321E+01
  2.504757667632E+01  2.414838025606E+01  2.325854466178E+01  2.237877756237E+01
  2.150978385433E+01  2.065226370720E+01  1.980691053102E+01  1.897440887082E+01
  1.815543223448E+01  1.735064086102E+01  1.656067943738E+01  1.578617477265E+01
  1.502773343978E+01  1.428593939582E+01  1.356135159264E+01  1.285450159106E+01
  1.216589119238E+01  1.149599010218E+01  1.084523364193E+01  1.021402052517E+01
  9.602710715268E+00  9.011623382730E+00  8.441034980342E+00  7.891177454925E+00
  7.362236614591E+00  6.854350670517E+00  6.367608972064E+00  5.902050953744E+00
  5.457665311969E+00  5.034389428678E+00  4.632109057921E+00  4.250658290111E+00
  3.889819807079E+00  3.549325439176E+00  3.228857033524E+00  2.928047640044E+00
  2.646483019222E+00  2.383703472556E+00  2.139205993442E+00  1.912446732818E+00
  1.702843770244E+00  1.509780177344E+00  1.332607356646E+00  1.170648634903E+00
  1.023203086076E+00  8.895495552354E-01  7.689508509513E-01  6.606580701588E-01
  5.639150162783E-01  4.779626684604E-01  4.020436574074E-01  3.354067013093E-01
  2.773109541406E-01  2.270302179394E-01  1.838569708261E-01  1.471061634430E-01
  1.161187382783E-01  9.026482898831E-02  6.894660036810E-02  5.160069404015E-02
  3.770025018872E-02  2.675648172435E-02  1.831978402961E-02  1.198037081363E-02
  7.368434459151E-03  4.153837428252E-03  2.045349626848E-03  7.894549198798E-04
  1.687580302270E-04  3.062733462509E-08  1.319422951184E-04  4.425280457292E-04
  8.364489104643E-04  1.242105705607E-03  1.608668181627E-03  1.903082298067E-03
  2.107117247107E-03  2.214511051412E-03  2.228269118282E-03  2.158164135317E-03
  2.018478297430E-03  1.826020276978E-03  1.598439860542E-03  1.352853099407E-03
  1.104780517266E-03  8.673907748543E-04  6.510326035493E-04  4.630291765708E-04
  3.077017473681E-04  1.865836626707E-04  9.878199837272E-05  4.144223221715E-05
  1.027162317072E-05  7.927210542369E-08  5.295040822923E-06  2.043534881250E-05
  4.049099516025E-05  6.122013324120E-05  7.933786942671E-05  9.260214941017E-05
  9.980312993481E-05  1.006696456626E-04  9.571128404024E-05  8.601769695972E-05
  7.303796104652E-05  5.836205054219E-05  4.352396147337E-05  2.984201913464E-05
  1.830682938185E-05  9.521700748496E-06  3.694714278556E-06  6.764886418263E-07
  3.355705709729E-08  1.144508900332E-06  3.304873914350E-06  5.827188838415E-06
  8.124652823138E-06  9.769949549777E-06  1.052475662171E-05  1.033965906312E-05
  9.328095710515E-06  7.721104700323E-06  5.811619132786E-06  3.897682243649E-06
  2.233183653697E-06  9.927438148076E-07  2.545455512663E-07  1.703868244983E-09
  0.000000000000E+00  0.000000000000E+00  0.000000000000E+00  0.000000000000E+00
  0.000000000000E+00  0.000000000000E+00  0.000000000000E+00  0.000000000000E+00
  0.000000000000E+00  0.000000000000E+00  0.000000000000E+00  0.000000000000E+00
  0.000000000000E+00  0.000000000000E+00  0.000000000000E+00  0.000000000000E+00
  0.000000000000E+00  0.000000000000E+00  0.000000000000E+00  0.000000000000E+00
  0.000000000000E+00  0.000000000000E+00  0.000000000000E+00  0.000000000000E+00
  0.000000000000E+00  0.000000000000E+00  0.000000000000E+00  0.000000000000E+00
  0.000000000000E+00  0.000000000000E+00  0.000000000000E+00  0.000000000000E+00
  0.000000000000E+00  0.000000000000E+00  0.000000000000E+00  0.000000000000E+00
  0.000000000000E+00  0.000000000000E+00  0.000000000000E+00  0.000000000000E+00
  0.000000000000E+00  0.000000000000E+00  0.000000000000E+00  0.000000000000E+00
  0.000000000000E+00  0.000000000000E+00  0.000000000000E+00  0.000000000000E+00
  0.000000000000E+00  0.000000000000E+00  0.000000000000E+00  0.000000000000E+00
  0.000000000000E+00  0.000000000000E+00  0.000000000000E+00  0.000000000000E+00
  0.000000000000E+00  0.000000000000E+00  0.000000000000E+00  0.000000000000E+00
  0.000000000000E+00  0.000000000000E+00  0.000000000000E+00  0.000000000000E+00
  0.000000000000E+00  0.000000000000E+00  0.000000000000E+00  0.000000000000E+00
  0.000000000000E+00  0.000000000000E+00  0.000000000000E+00  0.000000000000E+00
  0.000000000000E+00  0.000000000000E+00  0.000000000000E+00  0.000000000000E+00
  0.000000000000E+00  0.000000000000E+00  0.000000000000E+00  0.000000000000E+00
  0.000000000000E+00  0.000000000000E+00  0.000000000000E+00  0.000000000000E+00
  0.000000000000E+00  0.000000000000E+00  0.000000000000E+00  0.000000000000E+00
  0.000000000000E+00  0.000000000000E+00  0.000000000000E+00  0.000000000000E+00
  0.000000000000E+00  0.000000000000E+00  0.000000000000E+00
</data>
</radfunc>
</pseudocore-charge>
<semilocal-potentials set="scalar_relativistic">
<slps n="3" l="s" rc="1.31478641867" eref="-2.57372618263">
<radfunc>
<data npts="291">
 -4.881510497736E+00 -4.883913179431E+00 -4.891323688230E+00 -4.903581067992E+00
 -4.920604234734E+00 -4.942954717649E+00 -4.971385643521E+00 -5.003866757886E+00
 -5.040293293886E+00 -5.082645861062E+00 -5.130221816021E+00 -5.181739043489E+00
 -5.243731508869E+00 -5.308163731833E+00 -5.372213065810E+00 -5.445599085578E+00
 -5.529593308720E+00 -5.608709051154E+00 -5.697071916519E+00 -5.795656533908E+00
 -5.905512901144E+00 -6.002266516580E+00 -6.107559977574E+00 -6.222027869704E+00
 -6.346328280113E+00 -6.481138573691E+00 -6.627149869173E+00 -6.744428785930E+00
 -6.868695002198E+00 -7.000239652472E+00 -7.139348048957E+00 -7.286296498034E+00
 -7.441348715851E+00 -7.604751826205E+00 -7.776731928370E+00 -7.957489227974E+00
 -8.147192730618E+00 -8.345974505473E+00 -8.483585083050E+00 -8.625285407537E+00
 -8.771079172798E+00 -8.920958445229E+00 -9.074902708048E+00 -9.232877883068E+00
 -9.394835333628E+00 -9.560710852680E+00 -9.730423640353E+00 -9.903875275588E+00
 -1.008094868663E+01 -1.026150712540E+01 -1.044539315083E+01 -1.063242762628E+01
 -1.082240873644E+01 -1.101511102872E+01 -1.121028448443E+01 -1.140765362518E+01
 -1.160691665977E+01 -1.180774467743E+01 -1.200978089396E+01 -1.221263995831E+01
 -1.241590732903E+01 -1.261913873315E+01 -1.282185972394E+01 -1.302356536072E+01
 -1.322372004240E+01 -1.342175753896E+01 -1.361708128089E+01 -1.371353091598E+01
 -1.380906498741E+01 -1.390360074319E+01 -1.399705373870E+01 -1.408933790408E+01
 -1.418036562436E+01 -1.427004783383E+01 -1.435829412592E+01 -1.444501288015E+01
 -1.453011140712E+01 -1.461349611270E+01 -1.469507268187E+01 -1.477474628247E+01
 -1.485242178820E+01 -1.492800401959E+01 -1.500139800077E+01 -1.507250922857E+01
 -1.514124394963E+01 -1.520750943987E+01 -1.527121427962E+01 -1.533226861692E+01
 -1.539058441084E+01 -1.544607564648E+01 -1.549865851382E+01 -1.554825154359E+01
 -1.559477569503E+01 -1.563815439275E+01 -1.567831351295E+01 -1.571518132226E+01
 -1.574868837610E+01 -1.577876738620E+01 -1.580535306982E+01 -1.582838199449E+01
 -1.584779243318E+01 -1.586352424365E+01 -1.587551878469E+01 -1.588371887891E+01
 -1.588806882851E+01 -1.588851448724E+01 -1.588500338765E+01 -1.587748492019E+01
 -1.586591055763E+01 -1.585023411689E+01 -1.583041204880E+01 -1.580640374613E+01
 -1.577817185992E+01 -1.574568261452E+01 -1.570890611208E+01 -1.566781661787E+01
 -1.562239281802E+01 -1.557261804250E+01 -1.551848044658E+01 -1.545997314574E+01
 -1.539709430034E+01 -1.532984714899E+01 -1.525823999218E+01 -1.518228613116E+01
 -1.510200377024E+01 -1.501741589498E+01 -1.492855014154E+01 -1.483543867613E+01
 -1.473811810570E+01 -1.463662944308E+01 -1.453101815051E+01 -1.442133428613E+01
 -1.430763277718E+01 -1.418997384285E+01 -1.406842358801E+01 -1.394305478740E+01
 -1.381394787752E+01 -1.368119217142E+01 -1.354488730875E+01 -1.340514495068E+01
 -1.326209072607E+01 -1.311586643103E+01 -1.296663247905E+01 -1.281457059300E+01
 -1.265988672256E+01 -1.250281416146E+01 -1.234361682795E+01 -1.218259265904E+01
 -1.202007705397E+01 -1.185644628565E+01 -1.169212078042E+01 -1.152756814701E+01