<?xml version="1.0" encoding="UTF-8" ?>
<psml version="1.1" energy_unit="hartree" length_unit="bohr"
 uuid="064db7f0-1d61-11e8-5fb8-7935797e9f7e"
 xmlns="http://esl.cecam.org/PSML/ns/1.1">
<provenance creator="ONCVPSP-3.3.0+psml-3.3.0-73 (scalar-relativistic)"
 date="2018-03-01">
<annotation action="semilocal-pseudopotential-generation"
 action-cont="projectors-generation" />
<input-file name="oncvpsp-input">
<![CDATA[# atsym z nc nv iexc psfile
Po 84 12 3 -116133 upf
# n l f
1 0 2.0
2 0 2.0
2 1 6.0
3 0 2.0
3 1 6.0
3 2 10.0
4 0 2.0
4 1 6.0
4 2 10.0
5 0 2.0
5 1 6.0
4 3 14.0
5 2 10.0
6 0 2.0
6 1 4.0
# lmax
2
# l rc ep ncon nbas qcut
0 2.3 0.0 4 7 3.6
1 2.2 0.0 4 8 4.6
2 1.9 0.0 4 8 8.0
# lloc lpopt rc5 dvloc0
4 5 1.9 0.0
# l nproj debl
0 2 2.4
1 2 2.5
2 2 2.5
# icmod fcfact
3 6 1.34
# epsh1 epsh2 depsh
-12.0 12.0 0.02
# rlmax drl
6.0 0.01
 0
]]>
</input-file>
</provenance>
<pseudo-atom-spec atomic-label="Po" atomic-number="84" z-pseudo="16"
 flavor="Hamann&apos;s oncvpsp" relativity="scalar" spin-dft="no"
 core-corrections="yes">
<annotation pseudo-energy="-82.9756677209" />
<exchange-correlation>
<annotation oncvpsp-xc-code="-116133" oncvpsp-xc-type="libxc-interface" />
<libxc-info number-of-functionals="2">
<functional name="Perdew, Burke &amp; Ernzerhof SOL (GGA)" type="exchange"
 id="116" />
<functional name="Perdew, Burke &amp; Ernzerhof SOL (GGA)" type="correlation"
 id="133" />
</libxc-info>
</exchange-correlation>
<valence-configuration total-valence-charge="16">
<shell n="5" l="d" occupation="10" />
<shell n="6" l="s" occupation="2" />
<shell n="6" l="p" occupation="4" />
</valence-configuration>
</pseudo-atom-spec>
<grid npts="457">
<annotation type="sampled from oncvpsp log grid"
 recipe="r(i:1..N) = r1*exp(a*(i-1)) + r=0; resampled"
 recipe-cont="r1: scale; a: step" scale="0.595238095238E-05"
 step="0.119285708653E-01" delta="0.500000000000E-02" rmax="44.0605889801" />
<grid-data>
  0.000000000000E+00  5.031300802255E-03  1.004962851020E-02  1.507604528350E-02
  2.031422441398E-02  2.548179300022E-02  3.084027084741E-02  3.601345981203E-02
  4.106298189261E-02  4.626532407434E-02  5.150865635998E-02  5.666623015056E-02
  6.234023300928E-02  6.776914535508E-02  7.279726845657E-02  7.819845251068E-02
  8.400037672722E-02  8.916282012991E-02  9.464253379881E-02  1.004590163345E-01
  1.066329646705E-01  1.118442171143E-01  1.173101483258E-01  1.230432046939E-01
  1.290564408741E-01  1.353635495152E-01  1.419788924385E-01  1.471517127873E-01
  1.525129982658E-01  1.580696153610E-01  1.638286807322E-01  1.697975703246E-01
  1.759839288168E-01  1.823956794117E-01  1.890410339838E-01  1.959285035968E-01
  2.030669094043E-01  2.104653939473E-01  2.155468704188E-01  2.207510340582E-01
  2.260808470245E-01  2.315393429950E-01  2.371296288923E-01  2.428548866523E-01
  2.487183750356E-01  2.547234314824E-01  2.608734740122E-01  2.671720031687E-01
  2.736226040132E-01  2.802289481645E-01  2.869947958890E-01  2.939239982409E-01
  3.010204992545E-01  3.082883381885E-01  3.157316518257E-01  3.233546768274E-01
  3.311617521447E-01  3.391573214885E-01  3.473459358585E-01  3.557322561339E-01
  3.643210557260E-01  3.731172232954E-01  3.821257655346E-01  3.913518100177E-01
  4.008006081188E-01  4.104775380012E-01  4.203881076787E-01  4.254327649708E-01
  4.305379581505E-01  4.357044136483E-01  4.409328666121E-01  4.462240610114E-01
  4.515787497436E-01  4.569976947405E-01  4.624816670774E-01  4.680314470823E-01
  4.736478244473E-01  4.793315983407E-01  4.850835775207E-01  4.909045804510E-01
  4.967954354164E-01  5.027569806414E-01  5.087900644091E-01  5.148955451820E-01
  5.210742917242E-01  5.273271832249E-01  5.336551094236E-01  5.400589707367E-01
  5.465396783855E-01  5.530981545261E-01  5.597353323804E-01  5.664521563690E-01
  5.732495822454E-01  5.801285772324E-01  5.870901201592E-01  5.941352016011E-01
  6.012648240203E-01  6.084800019085E-01  6.157817619314E-01  6.231711430746E-01
  6.306491967915E-01  6.382169871530E-01  6.458755909988E-01  6.536260980908E-01
  6.614696112679E-01  6.694072466031E-01  6.774401335624E-01  6.855694151651E-01
  6.937962481471E-01  7.021218031249E-01  7.105472647624E-01  7.190738319395E-01
  7.277027179228E-01  7.364351505379E-01  7.452723723443E-01  7.542156408125E-01
  7.632662285022E-01  7.724254232442E-01  7.816945283232E-01  7.910748626630E-01
  8.005677610150E-01  8.101745741472E-01  8.198966690369E-01  8.297354290654E-01
  8.396922542142E-01  8.497685612647E-01  8.599657839999E-01  8.702853734079E-01
  8.807287978888E-01  8.912975434635E-01  9.019931139850E-01  9.128170313529E-01
  9.237708357291E-01  9.348560857578E-01  9.460743587869E-01  9.574272510924E-01
  9.689163781055E-01  9.805433746428E-01  9.923098951385E-01  1.004217613880E+00
  1.016268225247E+00  1.028463443950E+00  1.040805005277E+00  1.053294665340E+00
  1.065934201324E+00  1.078725411740E+00  1.091670116681E+00  1.104770158081E+00
  1.118027399978E+00  1.131443728778E+00  1.145021053523E+00  1.158761306166E+00
  1.172666441840E+00  1.186738439142E+00  1.200979300412E+00  1.215391052016E+00
  1.229975744641E+00  1.244735453576E+00  1.259672279019E+00  1.274788346367E+00
  1.290085806524E+00  1.305566836202E+00  1.321233638237E+00  1.337088441895E+00
  1.353133503198E+00  1.369371105237E+00  1.385803558499E+00  1.402433201201E+00
  1.419262399616E+00  1.436293548411E+00  1.453529070992E+00  1.470971419844E+00
  1.488623076882E+00  1.506486553805E+00  1.524564392450E+00  1.542859165160E+00
  1.561373475142E+00  1.580109956843E+00  1.599071276326E+00  1.618260131641E+00
  1.637679253221E+00  1.657331404260E+00  1.677219381111E+00  1.697346013684E+00
  1.717714165848E+00  1.738326735839E+00  1.759186656669E+00  1.780296896549E+00
  1.801660459307E+00  1.823280384819E+00  1.845159749437E+00  1.867301666430E+00
  1.889709286427E+00  1.912385797864E+00  1.935334427439E+00  1.958558440568E+00
  1.982061141855E+00  2.005845875557E+00  2.029916026064E+00  2.054275018377E+00
  2.078926318597E+00  2.103873434420E+00  2.129119915633E+00  2.154669354621E+00
  2.180525386876E+00  2.206691691519E+00  2.233171991817E+00  2.259970055719E+00
  2.287089696387E+00  2.314534772744E+00  2.342309190017E+00  2.370416900297E+00
  2.398861903101E+00  2.427648245938E+00  2.456780024889E+00  2.486261385188E+00
  2.516096521810E+00  2.546289680072E+00  2.576845156233E+00  2.607767298108E+00
  2.639060505685E+00  2.670729231753E+00  2.702777982534E+00  2.735211318325E+00
  2.768033854144E+00  2.801250260394E+00  2.834865263519E+00  2.868883646681E+00
  2.903310250441E+00  2.938149973447E+00  2.973407773128E+00  3.009088666406E+00
  3.045197730402E+00  3.081740103167E+00  3.118720984405E+00  3.156145636218E+00
  3.194019383853E+00  3.232347616459E+00  3.271135787856E+00  3.310389417311E+00
  3.350114090318E+00  3.390315459402E+00  3.430999244915E+00  3.472171235854E+00
  3.513837290684E+00  3.556003338173E+00  3.598675378231E+00  3.641859482769E+00
  3.685561796563E+00  3.729788538121E+00  3.774546000579E+00  3.819840552586E+00
  3.865678639217E+00  3.912066782887E+00  3.959011584282E+00  4.006519723293E+00
  4.054597959973E+00  4.103253135493E+00  4.152492173119E+00  4.202322079196E+00
  4.252749944146E+00  4.303782943476E+00  4.355428338798E+00  4.407693478863E+00
  4.460585800610E+00  4.514112830217E+00  4.568282184180E+00  4.623101570390E+00
  4.678578789234E+00  4.734721734705E+00  4.791538395522E+00  4.849036856268E+00
  4.907225298543E+00  4.966112002126E+00  5.025705346151E+00  5.086013810305E+00
  5.147045976029E+00  5.208810527741E+00  5.271316254074E+00  5.334572049123E+00
  5.398586913712E+00  5.463369956677E+00  5.528930396157E+00  5.595277560911E+00
  5.662420891642E+00  5.730369942342E+00  5.799134381650E+00  5.868723994229E+00
  5.939148682160E+00  6.010418466346E+00  6.082543487942E+00  6.155534009798E+00
  6.229400417915E+00  6.304153222930E+00  6.379803061605E+00  6.456360698345E+00
  6.533837026725E+00  6.612243071045E+00  6.691589987898E+00  6.771889067753E+00
  6.853151736566E+00  6.935389557405E+00  7.018614232093E+00  7.102837602878E+00
  7.188071654113E+00  7.274328513962E+00  7.361620456130E+00  7.449959901603E+00
  7.539359420423E+00  7.629831733468E+00  7.721389714269E+00  7.814046390841E+00
  7.907814947531E+00  8.002708726901E+00  8.098741231624E+00  8.195926126403E+00
  8.294277239920E+00  8.393808566799E+00  8.494534269601E+00  8.596468680836E+00
  8.699626305006E+00  8.804021820666E+00  8.909670082514E+00  9.016586123504E+00
  9.124785156986E+00  9.234282578870E+00  9.345093969817E+00  9.457235097454E+00
  9.570721918624E+00  9.685570581647E+00  9.801797428627E+00  9.919418997771E+00
  1.003845202574E+01  1.015891345005E+01  1.028082041145E+01  1.040419025639E+01
  1.052904053947E+01  1.065538902594E+01  1.078325369425E+01  1.091265273858E+01
  1.104360457145E+01  1.117612782630E+01  1.131024136022E+01  1.144596425654E+01
  1.158331582762E+01  1.172231561755E+01  1.186298340496E+01  1.200533920582E+01
  1.214940327629E+01  1.229519611561E+01  1.244273846900E+01  1.259205133062E+01
  1.274315594659E+01  1.289607381795E+01  1.305082670376E+01  1.320743662421E+01
  1.336592586370E+01  1.352631697407E+01  1.368863277775E+01  1.385289637109E+01
  1.401913112754E+01  1.418736070107E+01  1.435760902948E+01  1.452990033784E+01
  1.470425914189E+01  1.488071025159E+01  1.505927877461E+01  1.523999011991E+01
  1.542287000135E+01  1.560794444136E+01  1.579523977466E+01  1.598478265196E+01
  1.617660004378E+01  1.637071924430E+01  1.656716787524E+01  1.676597388974E+01
  1.696716557642E+01  1.717077156333E+01  1.737682082209E+01  1.758534267196E+01
  1.779636678402E+01  1.800992318543E+01  1.822604226365E+01  1.844475477082E+01
  1.866609182807E+01  1.889008493001E+01  1.911676594917E+01  1.934616714056E+01
  1.957832114624E+01  1.981326100000E+01  2.005102013200E+01  2.029163237358E+01
  2.053513196206E+01  2.078155354561E+01  2.103093218816E+01  2.128330337441E+01
  2.153870301491E+01  2.179716745109E+01  2.205873346050E+01  2.232343826202E+01
  2.259131952117E+01  2.286241535542E+01  2.313676433969E+01  2.341440551176E+01
  2.369537837791E+01  2.397972291844E+01  2.426747959346E+01  2.455868934858E+01
  2.485339362077E+01  2.515163434422E+01  2.545345395635E+01  2.575889540382E+01
  2.606800214867E+01  2.638081817445E+01  2.669738799255E+01  2.701775664846E+01
  2.734196972824E+01  2.767007336498E+01  2.800211424536E+01  2.833813961630E+01
  2.867819729170E+01  2.902233565920E+01  2.937060368711E+01  2.972305093135E+01
  3.007972754253E+01  3.044068427304E+01  3.080597248431E+01  3.117564415413E+01
  3.154975188398E+01  3.192834890658E+01  3.231148909346E+01  3.269922696258E+01
  3.309161768614E+01  3.348871709837E+01  3.389058170355E+01  3.429726868399E+01
  3.470883590820E+01  3.512534193910E+01  3.554684604237E+01  3.597340819488E+01
  3.640508909321E+01  3.684195016233E+01  3.728405356428E+01  3.773146220705E+01
  3.818423975354E+01  3.864245063058E+01  3.910616003815E+01  3.957543395860E+01
  4.005033916611E+01  4.053094323610E+01  4.101731455493E+01  4.150952232959E+01
  4.200763659755E+01  4.251172823672E+01  4.302186897556E+01  4.353813140327E+01
  4.406058898011E+01
</grid-data>
</grid>
<valence-charge total-charge="16" is-unscreening-charge="yes"
 rescaled-to-z-pseudo="no">
<radfunc>
<data npts="457">
  1.933867318668E-02  1.934480989697E-02  1.936480526832E-02  1.940367035459E-02
  1.947315833504E-02  1.958333222597E-02  1.975868590248E-02  2.000753883984E-02
  2.034858063124E-02  2.082808829028E-02  2.147405894068E-02  2.230283456454E-02
  2.348030079801E-02  2.491520841340E-02  2.655762495670E-02  2.870789733928E-02
  3.152616586263E-02  3.453507883705E-02  3.830905425294E-02  4.304385756230E-02
  4.898475647967E-02  5.480966093904E-02  6.179300862794E-02  7.016350062765E-02
  8.019379292976E-02  9.220848880132E-02  1.065934276115E-01  1.192099649205E-01
  1.336392019261E-01  1.501347116253E-01  1.689836190403E-01  1.905105644441E-01
  2.150820177555E-01  2.431109447042E-01  2.750618152427E-01  3.114559313217E-01
  3.528770338751E-01  3.999771269008E-01  4.348875756365E-01  4.728778631898E-01
  5.141993291330E-01  5.591206694488E-01  6.079286429397E-01  6.609287214751E-01
  7.184456648253E-01  7.808239978615E-01  8.484283646458E-01  9.216437304006E-01
  1.000875398540E+00  1.086548805879E+00  1.179109054853E+00  1.279020137094E+00
  1.386763798145E+00  1.502837988432E+00  1.627754841099E+00  1.762038112933E+00
  1.906220020662E+00  2.060837401532E+00  2.226427124532E+00  2.403520677255E+00
  2.592637853435E+00  2.794279468217E+00  3.008919032483E+00  3.236993324716E+00
  3.478891809402E+00  3.734944865506E+00  4.005410807656E+00  4.146106163964E+00
  4.290461707060E+00  4.438482952989E+00  4.590168049401E+00  4.745507238137E+00
  4.904482303672E+00  5.067066008848E+00  5.233221519532E+00  5.402901820080E+00
  5.576049121753E+00  5.752594266492E+00  5.932456128766E+00  6.115541018469E+00
  6.301742088189E+00  6.490938748464E+00  6.682996094991E+00  6.877764352059E+00
  7.075078336856E+00  7.274756949593E+00  7.476602694780E+00  7.680401239267E+00
  7.885921013039E+00  8.092912859023E+00  8.301109738487E+00  8.510226498869E+00
  8.719959711099E+00  8.929987583717E+00  9.139969961204E+00  9.349548414097E+00
  9.558346428480E+00  9.765969702457E+00  9.972006557113E+00  1.017602846930E+01
  1.037759073338E+01  1.057623325856E+01  1.077148150829E+01  1.096284758722E+01
  1.114983148087E+01  1.133192245217E+01  1.150860059818E+01  1.167933856899E+01
  1.184360344996E+01  1.200085880662E+01  1.215056689052E+01  1.229219100212E+01
  1.242519800571E+01  1.254906098864E+01  1.266326205588E+01  1.276729524811E+01
  1.286066956996E+01  1.294291211214E+01  1.301357124930E+01  1.307221989289E+01
  1.311845877608E+01  1.315191974540E+01  1.317226903174E+01  1.317921047109E+01
  1.317248864375E+01  1.315189189888E+01  1.311725523002E+01  1.306846296614E+01
  1.300545124188E+01  1.292821021087E+01  1.283678596552E+01  1.273128212806E+01
  1.261186107844E+01  1.247874478673E+01  1.233221521992E+01  1.217261429650E+01
  1.200034336537E+01  1.181586219035E+01  1.161968742645E+01  1.141239057927E+01
  1.119459544539E+01  1.096697503774E+01  1.073024800695E+01  1.048517457686E+01
  1.023255201972E+01  9.973209703923E+00  9.708003754610E+00  9.437811374366E+00
  9.163524878181E+00  8.886045502900E+00  8.606277056979E+00  8.325119481040E+00
  8.043462393396E+00  7.762178697353E+00  7.482118328455E+00  7.204102219882E+00
  6.928916562912E+00  6.657307436615E+00  6.389975876762E+00  6.127573448430E+00
  5.870698379874E+00  5.619892307165E+00  5.375637669969E+00  5.138355788739E+00
  4.908405642887E+00  4.686083358267E+00  4.471622400902E+00  4.265194462468E+00
  4.066911012018E+00  3.876825477875E+00  3.694936013922E+00  3.521188795844E+00
  3.355481785337E+00  3.197668894179E+00  3.047564475339E+00  2.904948065051E+00
  2.769569298078E+00  2.641152918039E+00  2.519403805729E+00  2.404011950588E+00
  2.294657293762E+00  2.191014375377E+00  2.092756723544E+00  1.999560928088E+00
  1.911110347941E+00  1.827098407512E+00  1.747231444051E+00  1.671231075224E+00
  1.598836063792E+00  1.529803664554E+00  1.463910447768E+00  1.400952603078E+00
  1.340745738614E+00  1.283124201340E+00  1.227939578738E+00  1.175057480722E+00
  1.124353805423E+00  1.075714398345E+00  1.029034516119E+00  9.842182484568E-01
  9.411778698269E-01  8.998331426936E-01  8.601105949641E-01  8.219427944708E-01
  7.852676427788E-01  7.500277093430E-01  7.161694922626E-01  6.836422048927E-01
  6.523963611233E-01  6.223832954363E-01  5.935552882652E-01  5.658661270677E-01
  5.392720966776E-01  5.137319876858E-01  4.892067189670E-01  4.656592638388E-01
  4.430544769349E-01  4.213589471818E-01  4.005408586055E-01  3.805698604143E-01
  3.614169464920E-01  3.430543439330E-01  3.254554104953E-01  3.085945406728E-01
  2.924470800613E-01  2.769892476585E-01  2.621980657067E-01  2.480512966665E-01
  2.345273868950E-01  2.216054165903E-01  2.092650555615E-01  1.974865243831E-01
  1.862505604976E-01  1.755383888363E-01  1.653316965430E-01  1.556126113954E-01
  1.463636835361E-01  1.375678701455E-01  1.292085227033E-01  1.212693765094E-01
  1.137345421558E-01  1.065884986605E-01  9.981608799922E-02  9.340251079106E-02
  8.733332291750E-02  8.159443288135E-02  7.617209971877E-02  7.105293131664E-02
  6.622388299895E-02  6.167225626784E-02  5.738569760416E-02  5.335219725049E-02
  4.956008791618E-02  4.599804335940E-02  4.265507681403E-02  3.952053924119E-02
  3.658411739379E-02  3.383583168952E-02  3.126603389220E-02  2.886540460329E-02
  2.662495056581E-02  2.453600178073E-02  2.259020843326E-02  2.077953762184E-02
  1.909626987899E-02  1.753299546819E-02  1.608261043811E-02  1.473831241260E-02
  1.349359609417E-02  1.234224845901E-02  1.127834362405E-02  1.029623737005E-02
  9.390561310066E-03  8.556216698541E-03  7.788367883284E-03  7.082435409687E-03
  6.434088793719E-03  5.839238987061E-03  5.294030563901E-03  4.794833664246E-03
  4.338235732940E-03  3.921033096774E-03  3.540222424206E-03  3.192992113188E-03
  2.876713652558E-03  2.588933001459E-03  2.327362029456E-03  2.089870057479E-03
  1.874475536665E-03  1.679337898673E-03  1.502749607217E-03  1.343128436612E-03
  1.199009999039E-03  1.069040538211E-03  9.519700032074E-04  8.466454124437E-04
  7.520045142770E-04  6.670697474611E-04  5.909425017609E-04  5.227976764370E-04
  4.618785320700E-04  4.074918293078E-04  3.590032465736E-04  3.158330675625E-04
  2.774521284478E-04  2.433780140999E-04  2.131714922430E-04  1.864331743187E-04
  1.628003918441E-04  1.419442772184E-04  1.235670382025E-04  1.073994156546E-04
  9.319831451031E-05  8.074459843236E-05  6.984103900486E-05  6.031041079077E-05
  5.199372400180E-05  4.474858693924E-05  3.844769074769E-05  3.297740937970E-05
  2.823650799897E-05  2.413495335399E-05  2.059281993533E-05  1.753928599258E-05
  1.491171373295E-05  1.265480825728E-05  1.071985001352E-05  9.063995764361E-06
  7.649643278724E-06  6.443855165520E-06  5.417837476023E-06  4.546468907428E-06
  3.807876645994E-06  3.183055093164E-06  2.655523922150E-06  2.211022115028E-06
  1.837234830877E-06  1.523550153054E-06  1.260842957574E-06  1.041283333993E-06
  8.581671742464E-07  7.057667230353E-07  5.791990547699E-07  4.743106063187E-07
  3.875760513653E-07  3.160099507126E-07  2.570897531441E-07  2.086888533076E-07
  1.690185364812E-07  1.365777550486E-07  1.101097881762E-07  8.856493472325E-08
  7.106848008446E-08  5.689326075304E-08  4.543622623402E-08  3.619846690346E-08
  2.876823888015E-08  2.280657335779E-08  1.803510854253E-08  1.422582776370E-08
  1.119242787726E-08  8.783078157981E-09  6.874361859742E-09  5.366220880491E-09
  4.177748848414E-09  3.243699778236E-09  2.511598540176E-09  1.939356026725E-09
  1.493306360481E-09  1.146596004800E-09  8.778654424394E-10  6.701733798617E-10
  5.101214013864E-10  3.871438046211E-10  2.929331461046E-10  2.209769472899E-10
  1.661851745457E-10  1.245916176962E-10  9.311524223227E-11  6.937006181206E-11
  5.151414088181E-11  3.813005382523E-11  2.813055037849E-11  2.068435320375E-11
  1.515798208100E-11  1.107029403854E-11  8.057078778938E-12  5.843578492269E-12
  4.223231319953E-12  3.041285808718E-12  2.182214330240E-12  1.560078884394E-12
  1.111183145427E-12  7.884885005346E-13  5.573861457203E-13  3.925077815673E-13
  2.753287903785E-13  1.923738087803E-13  1.338784497817E-13  9.279509432952E-14
  6.405719390989E-14  4.403703086574E-14  3.014767258673E-14  2.055196440380E-14
  1.395065361210E-14  9.428770108243E-15  6.344715406029E-15  4.250528283324E-15
  2.834811035953E-15  1.882054750140E-15  1.243779896016E-15  8.181517660099E-16
  5.356472720434E-16  3.490229134831E-16  2.263257823707E-16  1.460474235909E-16
  9.377951299830E-17  5.991704201477E-17  3.808858846599E-17  2.408879076542E-17
  1.515597547003E-17  9.485809576535E-18  5.905532120459E-18  3.656873790266E-18
  2.252158983235E-18  1.379423882543E-18  8.401893760816E-19  5.088715008652E-19
  3.064509137640E-19  1.834870728676E-19  1.092222696789E-19  6.463189715183E-20
  3.801724297588E-20  2.222692229124E-20  1.291541715544E-20  0.000000000000E+00
  0.000000000000E+00  0.000000000000E+00  0.000000000000E+00  0.000000000000E+00
  0.000000000000E+00  0.000000000000E+00  0.000000000000E+00  0.000000000000E+00
  0.000000000000E+00  0.000000000000E+00  0.000000000000E+00  0.000000000000E+00
  0.000000000000E+00  0.000000000000E+00  0.000000000000E+00  0.000000000000E+00
  0.000000000000E+00  0.000000000000E+00  0.000000000000E+00  0.000000000000E+00
  0.000000000000E+00
</data>
</radfunc>
</valence-charge>
<pseudocore-charge matching-radius="0.980543374643"
 number-of-continuous-derivatives="4">
<annotation model-charge-form="Teter function with specified parameters" />
<radfunc>
<data npts="290">
  7.325017648387E+01  7.324678311408E+01  7.323663885899E+01  7.321971364812E+01
  7.319487624969E+01  7.316318066385E+01  7.312277851846E+01  7.307650554845E+01
  7.302446501512E+01  7.296376206544E+01  7.289531945117E+01  7.282090294244E+01
  7.273093279594E+01  7.263692899816E+01  7.254298148469E+01  7.243471735206E+01
  7.230997997048E+01  7.219167462821E+01  7.205859811951E+01  7.190893711730E+01
  7.174066401167E+01  7.159113136186E+01  7.142696312166E+01  7.124676389882E+01
  7.104901304426E+01  7.083205506275E+01  7.059408965538E+01  7.040065933439E+01
  7.019343033006E+01  6.997146227903E+01  6.973375749618E+01  6.947925854552E+01
  6.920684589007E+01  6.891533566150E+01  6.860347759773E+01  6.826995320461E+01
  6.791337420737E+01  6.753228136760E+01  6.726384761704E+01  6.698336852454E+01
  6.669035856106E+01  6.638431814810E+01  6.606473384408E+01  6.573107861319E+01
  6.538281218604E+01  6.501938152230E+01  6.464022138599E+01  6.424475504510E+01
  6.383239510789E+01  6.340254450887E+01  6.295459765846E+01  6.248794177096E+01
  6.200195838614E+01  6.149602510063E+01  6.096951752570E+01  6.042181148886E+01
  5.985228549671E+01  5.926032347741E+01  5.864531782067E+01  5.800667273352E+01
  5.734380792964E+01  5.665616266960E+01  5.594320016818E+01  5.520441238405E+01
  5.443932520477E+01  5.364750403831E+01  5.282855981914E+01  5.240880900300E+01
  5.198215543323E+01  5.154856621091E+01  5.110801256238E+01  5.066047007561E+01
  5.020591894282E+01  4.974434420911E+01  4.927573602698E+01  4.880008991643E+01
  4.831740703050E+01  4.782769442581E+01  4.733096533796E+01  4.682723946118E+01
  4.631654323196E+01  4.579891011616E+01  4.527438089902E+01  4.474300397753E+01
  4.420483565453E+01  4.365994043377E+01  4.310839131530E+01  4.255027009020E+01
  4.198566763396E+01  4.141468419729E+01  4.083742969365E+01  4.025402398206E+01
  3.966459714427E+01  3.906928975491E+01  3.846825314332E+01  3.786164964562E+01
  3.724965284552E+01  3.663244780242E+01  3.601023126494E+01  3.538321186832E+01
  3.475161031380E+01  3.411565952816E+01  3.347560480135E+01  3.283170390031E+01
  3.218422715686E+01  3.153345752742E+01  3.087969062249E+01  3.022323470351E+01
  2.956441064496E+01  2.890355185922E+01  2.824100418202E+01  2.757712571596E+01
  2.691228662992E+01  2.624686891201E+01  2.558126607372E+01  2.491588280308E+01
  2.425113456480E+01  2.358744714513E+01  2.292525613972E+01  2.226500638253E+01
  2.160715131431E+01  2.095215228910E+01  2.030047781762E+01  1.965260274657E+01
  1.900900737325E+01  1.837017649493E+01  1.773659839330E+01  1.710876375400E+01
  1.648716452235E+01  1.587229269627E+01  1.526463905823E+01  1.466469184846E+01
  1.407293538209E+01  1.348984861371E+01  1.291590365319E+01  1.235156423741E+01
  1.179728416303E+01  1.125350568636E+01  1.072065789672E+01  1.019915507070E+01
  9.689395015204E+00  9.191757407926E+00  8.706602144609E+00  8.234267703017E+00
  7.775069534227E+00  7.329298492423E+00  6.897219314863E+00  6.479069164233E+00
  6.075056245916E+00  5.685358513078E+00  5.310122472641E+00  4.949462105341E+00
  4.603457913010E+00  4.272156106099E+00  3.955567944110E+00  3.653669241160E+00
  3.366400048243E+00  3.093664522946E+00  2.835330996353E+00  2.591232245691E+00
  2.361165979854E+00  2.144895543369E+00  1.942150842590E+00  1.752629495902E+00
  1.575998207620E+00  1.411894362940E+00  1.259927838835E+00  1.119683023258E+00
  9.907210323159E-01  8.725821123911E-01  7.647882114263E-01  6.668457008734E-01
  5.782482271576E-01  4.984796689634E-01  4.270171742827E-01  3.633342490176E-01
  3.069038670669E-01  2.572015702932E-01  2.137085256357E-01  1.759145059401E-01
  1.433207608810E-01  1.154427446943E-01  9.181266835008E-02  7.198184530732E-02
  5.552280211727E-02  4.203112788099E-02  3.112703990695E-02  2.245664682775E-02
  1.569289487561E-02  1.053618792063E-02  6.714677164589E-03  3.984221957271E-03
  2.128028950119E-03  9.559825937130E-04  3.036856833027E-04  3.123411100550E-05
  2.175504204411E-05  1.797422423992E-04  4.292260986371E-04  7.118188501203E-04
  9.846775785111E-04  1.218428470956E-03  1.395095721149E-03  1.506077119433E-03
  1.550205909659E-03  1.531934898061E-03  1.459674172175E-03  1.344308253003E-03
  1.197912229686E-03  1.032679618707E-03  8.600675862535E-04  6.901580331190E-04
  5.312261395444E-04  3.895015771532E-04  2.691019787598E-04  1.721136511101E-04
  9.879111784373E-05  4.784503562903E-05  1.678741819262E-05  2.303942632793E-06
  6.253362774431E-07  7.873310872995E-06  2.036101308197E-05  3.483322301309E-05
  4.863723476957E-05  5.982114430877E-05  6.716179228223E-05  7.012952150893E-05
  6.880090987281E-05  6.373349332733E-05  5.581804758149E-05  4.612419600132E-05
  3.575400521565E-05  2.571597227455E-05  1.682864445477E-05  9.659365198026E-06
  4.499674153820E-06  1.375086595323E-06  8.369615190210E-08  2.555857932346E-07
  1.423607383578E-06  3.095799834570E-06  4.820535615314E-06  6.237267890784E-06
  7.108241239477E-06  7.329394720141E-06  6.921555292439E-06  6.005527984591E-06
  4.766526904314E-06  3.414344274268E-06  2.145634974907E-06  1.113752408515E-06
  4.098911710439E-07  5.716238300792E-08  0.000000000000E+00  0.000000000000E+00
  0.000000000000E+00  0.000000000000E+00  0.000000000000E+00  0.000000000000E+00
  0.000000000000E+00  0.000000000000E+00  0.000000000000E+00  0.000000000000E+00
  0.000000000000E+00  0.000000000000E+00  0.000000000000E+00  0.000000000000E+00
  0.000000000000E+00  0.000000000000E+00  0.000000000000E+00  0.000000000000E+00
  0.000000000000E+00  0.000000000000E+00  0.000000000000E+00  0.000000000000E+00
  0.000000000000E+00  0.000000000000E+00  0.000000000000E+00  0.000000000000E+00
  0.000000000000E+00  0.000000000000E+00  0.000000000000E+00  0.000000000000E+00
  0.000000000000E+00  0.000000000000E+00  0.000000000000E+00  0.000000000000E+00
  0.000000000000E+00  0.000000000000E+00
</data>
</radfunc>
</pseudocore-charge>
<semilocal-potentials set="scalar_relativistic">
<slps n="6" l="s" rc="2.31453477274" eref="-0.623721276361">
<radfunc>
<data npts="290">
  6.677053464488E+00  6.673268613137E+00  6.661960813906E+00  6.643116793914E+00
  6.615514427085E+00  6.580377954219E+00  6.535731473568E+00  6.484791595171E+00
  6.427748687023E+00  6.361537830004E+00  6.287304306705E+00  6.207091356021E+00
  6.110801920725E+00  6.010992049235E+00  5.912045749617E+00  5.799005365596E+00
  5.670054044239E+00  5.549008869492E+00  5.414290157148E+00  5.264573655954E+00
  5.098461719472E+00  4.952787585464E+00  4.794915352179E+00  4.624060376606E+00
  4.439432337752E+00  4.240244823582E+00  4.025726728274E+00  3.854329307414E+00
  3.673592051853E+00  3.483234973673E+00  3.283000273012E+00  3.072656990924E+00
  2.852005936657E+00  2.620884844600E+00  2.379173703460E+00  2.126800187082E+00
  1.863745103010E+00  1.590047762019E+00  1.401718594704E+00  1.208751156655E+00
  1.011206853357E+00  8.091617908106E-01  6.027072742193E-01  3.919502455497E-01
  1.770136523736E-01 -4.196325932670E-02 -2.648247352959E-01 -4.913983924487E-01
 -7.214951932941E-01 -9.549095201964E-01 -1.191419353378E+00 -1.430786555506E+00
 -1.672757264525E+00 -1.917062395156E+00 -2.163418248169E+00 -2.411527225147E+00
 -2.661078645166E+00 -2.911749658410E+00 -3.163206250498E+00 -3.415104330093E+00
 -3.667090891289E+00 -3.918805241335E+00 -4.169880283531E+00 -4.419943844579E+00
 -4.668620035354E+00 -4.915530634025E+00 -5.160296480629E+00 -5.281756721488E+00
 -5.402538872692E+00 -5.522595895492E+00 -5.641880952223E+00 -5.760347448579E+00
 -5.877949075450E+00 -5.994639850281E+00 -6.110374157914E+00 -6.225106790879E+00
 -6.338792989128E+00 -6.451388479184E+00 -6.562849512715E+00 -6.673132904525E+00
 -6.782196069983E+00 -6.889997061916E+00 -6.996494606990E+00 -7.101648141625E+00
 -7.205417847499E+00 -7.307764686697E+00 -7.408650436579E+00 -7.508037724439E+00
 -7.605890062064E+00 -7.702171880267E+00 -7.796848563517E+00 -7.889886484779E+00
 -7.981253040675E+00 -8.070916687118E+00 -8.158846975531E+00 -8.245014589802E+00
 -8.329391384119E+00 -8.411950421831E+00 -8.492666015468E+00 -8.571513768081E+00
 -8.648470616025E+00 -8.723514873321E+00 -8.796626277717E+00 -8.867786038537E+00
 -8.936976886424E+00 -9.004183125004E+00 -9.069390684525E+00 -9.132587177442E+00
 -9.193761955892E+00 -9.252906170968E+00 -9.310012833607E+00 -9.365076876879E+00
 -9.418095219359E+00 -9.469066829200E+00 -9.517992788436E+00 -9.564876356941E+00
 -9.609723035376E+00 -9.652540626348E+00 -9.693339292902E+00 -9.732131613356E+00
 -9.768932631391E+00 -9.803759900183E+00 -9.836633519307E+00 -9.867576163019E+00
 -9.896613098469E+00 -9.923772192338E+00 -9.949083904333E+00 -9.972581265964E+00
 -9.994299843029E+00 -1.001427768022E+01 -1.003255522632E+01 -1.004917523857E+01
 -1.006418266471E+01 -1.007762450154E+01 -1.008954962871E+01 -1.010000861676E+01
 -1.010905350856E+01 -1.011673757329E+01 -1.012311503253E+01 -1.012824075808E+01
 -1.013216994109E+01 -1.013495773289E+01 -1.013665885724E+01 -1.013732719484E+01
 -1.013701534037E+01 -1.013577413314E+01 -1.013365216239E+01 -1.013069524878E+01
 -1.012694590372E+01 -1.012244276901E+01 -1.011722003944E+01 -1.011130687188E+01