<?xml version="1.0" encoding="UTF-8" ?>
<psml version="1.1" energy_unit="hartree" length_unit="bohr"
 uuid="746eac80-1d66-11e8-40ca-613eafb226cc"
 xmlns="http://esl.cecam.org/PSML/ns/1.1">
<provenance creator="ONCVPSP-3.3.0+psml-3.3.0-73 (scalar-relativistic)"
 date="2018-03-01">
<annotation action="semilocal-pseudopotential-generation"
 action-cont="projectors-generation" />
<input-file name="oncvpsp-input">
<![CDATA[# atsym z nc nv iexc psfile
Po 84 10 5 -116133 upf
# n l f
1 0 2.0
2 0 2.0
2 1 6.0
3 0 2.0
3 1 6.0
3 2 10.0
4 0 2.0
4 1 6.0
4 2 10.0
4 3 14.0
5 0 2.0
5 1 6.0
5 2 10.0
6 0 2.0
6 1 4.0
# lmax
2
# l rc ep ncon nbas qcut
0 1.4 0.0 4 8 9.0
1 1.5 0.0 4 8 8.4
2 1.4 0.0 4 8 9.0
# lloc lpopt rc5 dvloc0
4 5 1.3 0.0
# l nproj debl
0 2 1.0
1 2 1.0
2 2 2.5
# icmod fcfact rcfact
3 6.0 1.34
# epsh1 epsh2 depsh
-12.0 12.0 0.02
# rlmax drl
6.0 0.01
 0
]]>
</input-file>
</provenance>
<pseudo-atom-spec atomic-label="Po" atomic-number="84" z-pseudo="24"
 flavor="Hamann&apos;s oncvpsp" relativity="scalar" spin-dft="no"
 core-corrections="yes">
<annotation pseudo-energy="-240.999041273" />
<exchange-correlation>
<annotation oncvpsp-xc-code="-116133" oncvpsp-xc-type="libxc-interface" />
<libxc-info number-of-functionals="2">
<functional name="Perdew, Burke &amp; Ernzerhof SOL (GGA)" type="exchange"
 id="116" />
<functional name="Perdew, Burke &amp; Ernzerhof SOL (GGA)" type="correlation"
 id="133" />
</libxc-info>
</exchange-correlation>
<valence-configuration total-valence-charge="24">
<shell n="5" l="s" occupation="2" />
<shell n="5" l="p" occupation="6" />
<shell n="5" l="d" occupation="10" />
<shell n="6" l="s" occupation="2" />
<shell n="6" l="p" occupation="4" />
</valence-configuration>
</pseudo-atom-spec>
<grid npts="457">
<annotation type="sampled from oncvpsp log grid"
 recipe="r(i:1..N) = r1*exp(a*(i-1)) + r=0; resampled"
 recipe-cont="r1: scale; a: step" scale="0.595238095238E-05"
 step="0.119285708653E-01" delta="0.500000000000E-02" rmax="44.0605889801" />
<grid-data>
  0.000000000000E+00  5.031300802255E-03  1.004962851020E-02  1.507604528350E-02
  2.031422441398E-02  2.548179300022E-02  3.084027084741E-02  3.601345981203E-02
  4.106298189261E-02  4.626532407434E-02  5.150865635998E-02  5.666623015056E-02
  6.234023300928E-02  6.776914535508E-02  7.279726845657E-02  7.819845251068E-02
  8.400037672722E-02  8.916282012991E-02  9.464253379881E-02  1.004590163345E-01
  1.066329646705E-01  1.118442171143E-01  1.173101483258E-01  1.230432046939E-01
  1.290564408741E-01  1.353635495152E-01  1.419788924385E-01  1.471517127873E-01
  1.525129982658E-01  1.580696153610E-01  1.638286807322E-01  1.697975703246E-01
  1.759839288168E-01  1.823956794117E-01  1.890410339838E-01  1.959285035968E-01
  2.030669094043E-01  2.104653939473E-01  2.155468704188E-01  2.207510340582E-01
  2.260808470245E-01  2.315393429950E-01  2.371296288923E-01  2.428548866523E-01
  2.487183750356E-01  2.547234314824E-01  2.608734740122E-01  2.671720031687E-01
  2.736226040132E-01  2.802289481645E-01  2.869947958890E-01  2.939239982409E-01
  3.010204992545E-01  3.082883381885E-01  3.157316518257E-01  3.233546768274E-01
  3.311617521447E-01  3.391573214885E-01  3.473459358585E-01  3.557322561339E-01
  3.643210557260E-01  3.731172232954E-01  3.821257655346E-01  3.913518100177E-01
  4.008006081188E-01  4.104775380012E-01  4.203881076787E-01  4.254327649708E-01
  4.305379581505E-01  4.357044136483E-01  4.409328666121E-01  4.462240610114E-01
  4.515787497436E-01  4.569976947405E-01  4.624816670774E-01  4.680314470823E-01
  4.736478244473E-01  4.793315983407E-01  4.850835775207E-01  4.909045804510E-01
  4.967954354164E-01  5.027569806414E-01  5.087900644091E-01  5.148955451820E-01
  5.210742917242E-01  5.273271832249E-01  5.336551094236E-01  5.400589707367E-01
  5.465396783855E-01  5.530981545261E-01  5.597353323804E-01  5.664521563690E-01
  5.732495822454E-01  5.801285772324E-01  5.870901201592E-01  5.941352016011E-01
  6.012648240203E-01  6.084800019085E-01  6.157817619314E-01  6.231711430746E-01
  6.306491967915E-01  6.382169871530E-01  6.458755909988E-01  6.536260980908E-01
  6.614696112679E-01  6.694072466031E-01  6.774401335624E-01  6.855694151651E-01
  6.937962481471E-01  7.021218031249E-01  7.105472647624E-01  7.190738319395E-01
  7.277027179228E-01  7.364351505379E-01  7.452723723443E-01  7.542156408125E-01
  7.632662285022E-01  7.724254232442E-01  7.816945283232E-01  7.910748626630E-01
  8.005677610150E-01  8.101745741472E-01  8.198966690369E-01  8.297354290654E-01
  8.396922542142E-01  8.497685612647E-01  8.599657839999E-01  8.702853734079E-01
  8.807287978888E-01  8.912975434635E-01  9.019931139850E-01  9.128170313529E-01
  9.237708357291E-01  9.348560857578E-01  9.460743587869E-01  9.574272510924E-01
  9.689163781055E-01  9.805433746428E-01  9.923098951385E-01  1.004217613880E+00
  1.016268225247E+00  1.028463443950E+00  1.040805005277E+00  1.053294665340E+00
  1.065934201324E+00  1.078725411740E+00  1.091670116681E+00  1.104770158081E+00
  1.118027399978E+00  1.131443728778E+00  1.145021053523E+00  1.158761306166E+00
  1.172666441840E+00  1.186738439142E+00  1.200979300412E+00  1.215391052016E+00
  1.229975744641E+00  1.244735453576E+00  1.259672279019E+00  1.274788346367E+00
  1.290085806524E+00  1.305566836202E+00  1.321233638237E+00  1.337088441895E+00
  1.353133503198E+00  1.369371105237E+00  1.385803558499E+00  1.402433201201E+00
  1.419262399616E+00  1.436293548411E+00  1.453529070992E+00  1.470971419844E+00
  1.488623076882E+00  1.506486553805E+00  1.524564392450E+00  1.542859165160E+00
  1.561373475142E+00  1.580109956843E+00  1.599071276326E+00  1.618260131641E+00
  1.637679253221E+00  1.657331404260E+00  1.677219381111E+00  1.697346013684E+00
  1.717714165848E+00  1.738326735839E+00  1.759186656669E+00  1.780296896549E+00
  1.801660459307E+00  1.823280384819E+00  1.845159749437E+00  1.867301666430E+00
  1.889709286427E+00  1.912385797864E+00  1.935334427439E+00  1.958558440568E+00
  1.982061141855E+00  2.005845875557E+00  2.029916026064E+00  2.054275018377E+00
  2.078926318597E+00  2.103873434420E+00  2.129119915633E+00  2.154669354621E+00
  2.180525386876E+00  2.206691691519E+00  2.233171991817E+00  2.259970055719E+00
  2.287089696387E+00  2.314534772744E+00  2.342309190017E+00  2.370416900297E+00
  2.398861903101E+00  2.427648245938E+00  2.456780024889E+00  2.486261385188E+00
  2.516096521810E+00  2.546289680072E+00  2.576845156233E+00  2.607767298108E+00
  2.639060505685E+00  2.670729231753E+00  2.702777982534E+00  2.735211318325E+00
  2.768033854144E+00  2.801250260394E+00  2.834865263519E+00  2.868883646681E+00
  2.903310250441E+00  2.938149973447E+00  2.973407773128E+00  3.009088666406E+00
  3.045197730402E+00  3.081740103167E+00  3.118720984405E+00  3.156145636218E+00
  3.194019383853E+00  3.232347616459E+00  3.271135787856E+00  3.310389417311E+00
  3.350114090318E+00  3.390315459402E+00  3.430999244915E+00  3.472171235854E+00
  3.513837290684E+00  3.556003338173E+00  3.598675378231E+00  3.641859482769E+00
  3.685561796563E+00  3.729788538121E+00  3.774546000579E+00  3.819840552586E+00
  3.865678639217E+00  3.912066782887E+00  3.959011584282E+00  4.006519723293E+00
  4.054597959973E+00  4.103253135493E+00  4.152492173119E+00  4.202322079196E+00
  4.252749944146E+00  4.303782943476E+00  4.355428338798E+00  4.407693478863E+00
  4.460585800610E+00  4.514112830217E+00  4.568282184180E+00  4.623101570390E+00
  4.678578789234E+00  4.734721734705E+00  4.791538395522E+00  4.849036856268E+00
  4.907225298543E+00  4.966112002126E+00  5.025705346151E+00  5.086013810305E+00
  5.147045976029E+00  5.208810527741E+00  5.271316254074E+00  5.334572049123E+00
  5.398586913712E+00  5.463369956677E+00  5.528930396157E+00  5.595277560911E+00
  5.662420891642E+00  5.730369942342E+00  5.799134381650E+00  5.868723994229E+00
  5.939148682160E+00  6.010418466346E+00  6.082543487942E+00  6.155534009798E+00
  6.229400417915E+00  6.304153222930E+00  6.379803061605E+00  6.456360698345E+00
  6.533837026725E+00  6.612243071045E+00  6.691589987898E+00  6.771889067753E+00
  6.853151736566E+00  6.935389557405E+00  7.018614232093E+00  7.102837602878E+00
  7.188071654113E+00  7.274328513962E+00  7.361620456130E+00  7.449959901603E+00
  7.539359420423E+00  7.629831733468E+00  7.721389714269E+00  7.814046390841E+00
  7.907814947531E+00  8.002708726901E+00  8.098741231624E+00  8.195926126403E+00
  8.294277239920E+00  8.393808566799E+00  8.494534269601E+00  8.596468680836E+00
  8.699626305006E+00  8.804021820666E+00  8.909670082514E+00  9.016586123504E+00
  9.124785156986E+00  9.234282578870E+00  9.345093969817E+00  9.457235097454E+00
  9.570721918624E+00  9.685570581647E+00  9.801797428627E+00  9.919418997771E+00
  1.003845202574E+01  1.015891345005E+01  1.028082041145E+01  1.040419025639E+01
  1.052904053947E+01  1.065538902594E+01  1.078325369425E+01  1.091265273858E+01
  1.104360457145E+01  1.117612782630E+01  1.131024136022E+01  1.144596425654E+01
  1.158331582762E+01  1.172231561755E+01  1.186298340496E+01  1.200533920582E+01
  1.214940327629E+01  1.229519611561E+01  1.244273846900E+01  1.259205133062E+01
  1.274315594659E+01  1.289607381795E+01  1.305082670376E+01  1.320743662421E+01
  1.336592586370E+01  1.352631697407E+01  1.368863277775E+01  1.385289637109E+01
  1.401913112754E+01  1.418736070107E+01  1.435760902948E+01  1.452990033784E+01
  1.470425914189E+01  1.488071025159E+01  1.505927877461E+01  1.523999011991E+01
  1.542287000135E+01  1.560794444136E+01  1.579523977466E+01  1.598478265196E+01
  1.617660004378E+01  1.637071924430E+01  1.656716787524E+01  1.676597388974E+01
  1.696716557642E+01  1.717077156333E+01  1.737682082209E+01  1.758534267196E+01
  1.779636678402E+01  1.800992318543E+01  1.822604226365E+01  1.844475477082E+01
  1.866609182807E+01  1.889008493001E+01  1.911676594917E+01  1.934616714056E+01
  1.957832114624E+01  1.981326100000E+01  2.005102013200E+01  2.029163237358E+01
  2.053513196206E+01  2.078155354561E+01  2.103093218816E+01  2.128330337441E+01
  2.153870301491E+01  2.179716745109E+01  2.205873346050E+01  2.232343826202E+01
  2.259131952117E+01  2.286241535542E+01  2.313676433969E+01  2.341440551176E+01
  2.369537837791E+01  2.397972291844E+01  2.426747959346E+01  2.455868934858E+01
  2.485339362077E+01  2.515163434422E+01  2.545345395635E+01  2.575889540382E+01
  2.606800214867E+01  2.638081817445E+01  2.669738799255E+01  2.701775664846E+01
  2.734196972824E+01  2.767007336498E+01  2.800211424536E+01  2.833813961630E+01
  2.867819729170E+01  2.902233565920E+01  2.937060368711E+01  2.972305093135E+01
  3.007972754253E+01  3.044068427304E+01  3.080597248431E+01  3.117564415413E+01
  3.154975188398E+01  3.192834890658E+01  3.231148909346E+01  3.269922696258E+01
  3.309161768614E+01  3.348871709837E+01  3.389058170355E+01  3.429726868399E+01
  3.470883590820E+01  3.512534193910E+01  3.554684604237E+01  3.597340819488E+01
  3.640508909321E+01  3.684195016233E+01  3.728405356428E+01  3.773146220705E+01
  3.818423975354E+01  3.864245063058E+01  3.910616003815E+01  3.957543395860E+01
  4.005033916611E+01  4.053094323610E+01  4.101731455493E+01  4.150952232959E+01
  4.200763659755E+01  4.251172823672E+01  4.302186897556E+01  4.353813140327E+01
  4.406058898011E+01
</grid-data>
</grid>
<valence-charge total-charge="24" is-unscreening-charge="yes"
 rescaled-to-z-pseudo="no">
<radfunc>
<data npts="457">
  7.791741148736E+00  7.795622196327E+00  7.807223946580E+00  7.826579725454E+00
  7.854981227420E+00  7.891220347164E+00  7.937406392209E+00  7.990292985158E+00
  8.049757612446E+00  8.119101622603E+00  8.197262350900E+00  8.282214982919E+00
  8.384880506018E+00  8.492097627181E+00  8.599197055264E+00  8.722549413789E+00
  8.864578360357E+00  8.999189718068E+00  9.150495835214E+00  9.320512112277E+00
  9.511481262724E+00  9.681007604129E+00  9.866931110718E+00  1.007076726525E+01
  1.029415522658E+01  1.053886387527E+01  1.080679701405E+01  1.102421143504E+01
  1.125674951136E+01  1.150536971659E+01  1.177107469671E+01  1.205491007267E+01
  1.235796241510E+01  1.268135621266E+01  1.302624962544E+01  1.339382878156E+01
  1.378530033779E+01  1.420188198396E+01  1.449415448383E+01  1.479848551614E+01
  1.511522713705E+01  1.544472347267E+01  1.578730775933E+01  1.614329900078E+01
  1.651299820739E+01  1.689668418067E+01  1.729460880536E+01  1.770699181033E+01
  1.813401495942E+01  1.857581563363E+01  1.903247976713E+01  1.950403410219E+01
  1.999043773135E+01  2.049157290033E+01  2.100723505230E+01  2.153712210281E+01
  2.208082294668E+01  2.263780521223E+01  2.320740229621E+01  2.378879973396E+01
  2.438102098509E+01  2.498291274450E+01  2.559312992361E+01  2.621012048646E+01
  2.683211037009E+01  2.745708876950E+01  2.808279412232E+01  2.839514089240E+01
  2.870670118904E+01  2.901711629164E+01  2.932600968848E+01  2.963298684440E+01
  2.993763501509E+01  3.023952311342E+01  3.053820163322E+01  3.083320263657E+01
  3.112403981029E+01  3.141020859811E+01  3.169118641492E+01  3.196643294946E+01
  3.223539056238E+01  3.249748478625E+01  3.275212493447E+01  3.299870482569E+01
  3.323660363047E+01  3.346518684690E+01  3.368380741123E+01  3.389180694969E+01
  3.408851717719E+01  3.427326144786E+01  3.444535646220E+01  3.460411413452E+01
  3.474884362386E+01  3.487885353037E+01  3.499345425826E+01  3.509196054514E+01
  3.517369415618E+01  3.523798674012E+01  3.528418284255E+01  3.531164306997E+01
  3.531974739647E+01  3.530789860255E+01  3.527552583387E+01  3.522208826488E+01
  3.514707885056E+01  3.505002814656E+01  3.493050817590E+01  3.478813631761E+01
  3.462257919043E+01  3.443355650202E+01  3.422084483194E+01  3.398428131419E+01
  3.372376718319E+01  3.343927114509E+01  3.313083253475E+01  3.279856421743E+01
  3.244265519340E+01  3.206337286316E+01  3.166106491114E+01  3.123616076630E+01
  3.078917259928E+01  3.032069581787E+01  2.983140902483E+01  2.932207340589E+01
  2.879353151946E+01  2.824670546484E+01  2.768259441115E+01  2.710227147574E+01
  2.650687994783E+01  2.589762886104E+01  2.527578792666E+01  2.464268184828E+01
  2.399968404763E+01  2.334820984045E+01  2.268970911094E+01  2.202565854179E+01
  2.135755346631E+01  2.068689941637E+01  2.001520344801E+01  1.934396533219E+01
  1.867466870354E+01  1.800877226331E+01  1.734770113476E+01  1.669283846941E+01
  1.604551740075E+01  1.540701343855E+01  1.477853739103E+01  1.416122889515E+01
  1.355615062543E+01  1.296428324149E+01  1.238652112169E+01  1.182366891754E+01
  1.127643894901E+01  1.074544944710E+01  1.023122363533E+01  9.734189628579E+00
  9.254681114764E+00  8.792938773622E+00  8.349112377538E+00  7.923263511814E+00
  7.515368846896E+00  7.125323892539E+00  6.752947164090E+00  6.397984694476E+00
  6.060114832997E+00  5.738953280374E+00  5.434058314922E+00  5.144936173069E+00
  4.871047923760E+00  4.611821931184E+00  4.366669198111E+00  4.134989384123E+00
  3.916174382155E+00  3.709613004037E+00  3.514695792869E+00  3.330821824306E+00
  3.157405980073E+00  2.993880407564E+00  2.839695953177E+00  2.694323131628E+00
  2.557252929635E+00  2.427997375476E+00  2.306089911117E+00  2.191085583706E+00
  2.082561074761E+00  1.980114584627E+00  1.883365588998E+00  1.791954483504E+00
  1.705542131465E+00  1.623809329010E+00  1.546456200851E+00  1.473201539025E+00
  1.403782096032E+00  1.337951842807E+00  1.275481201117E+00  1.216156259023E+00
  1.159777977237E+00  1.106161393334E+00  1.055134830003E+00  1.006539112757E+00
  9.602268017987E-01  9.160614420811E-01  8.739168349338E-01  8.336763340827E-01
  7.952321683143E-01  7.584847925578E-01  7.233422686980E-01  6.897196770287E-01
  6.575385588887E-01  6.267263906997E-01  5.972160893396E-01  5.689455485363E-01
  5.418572057563E-01  5.158976388754E-01  4.910171917747E-01  4.671696278734E-01
  4.443118105155E-01  4.224034090488E-01  4.014066293951E-01  3.812859677567E-01
  3.620079863765E-01  3.435411098634E-01  3.258554408928E-01  3.089225939922E-01
  2.927155461588E-01  2.772085030905E-01  2.623767798428E-01  2.481966947727E-01
  2.346454756687E-01  2.217011770206E-01  2.093426074301E-01  1.975492662184E-01
  1.863012883369E-01  1.755793967457E-01  1.653648614715E-01  1.556394646178E-01
  1.463854706423E-01  1.375856012771E-01  1.292230145081E-01  1.212812870828E-01
  1.137444000596E-01  1.065967269549E-01  9.982302408757E-02  9.340842275919E-02
  8.733842294671E-02  8.159888822550E-02  7.617604166002E-02  7.105646244881E-02
  6.622708313124E-02  6.167518719412E-02  5.738840694217E-02  5.335472152102E-02
  4.956245500317E-02  4.600027446727E-02  4.265718801838E-02  3.952254271142E-02
  3.658602235215E-02  3.383764515915E-02  3.126776127685E-02  2.886705013338E-02
  2.662651763873E-02  2.453749321794E-02  2.259162667208E-02  2.078088485655E-02
  1.909754816252E-02  1.753420678363E-02  1.608375674710E-02  1.473939568643E-02
  1.349461833184E-02  1.234321169580E-02  1.127924993326E-02  1.029708885996E-02
  9.391360117664E-03  8.556964981291E-03  7.789067809737E-03  7.083089149654E-03
  6.434698508469E-03  5.839806819882E-03  5.294558631260E-03  4.795324047704E-03
  4.338690471890E-03  3.921454182071E-03  3.540611792672E-03  3.193351642988E-03
  2.877045159399E-03  2.589238235580E-03  2.327642673339E-03  2.090127724229E-03
  1.874711768994E-03  1.679554168429E-03  1.502947315398E-03  1.343308913807E-03
  1.199174506239E-03  1.069190267951E-03  9.521060809752E-04  8.467688983265E-04
  7.521164048016E-04  6.671709775929E-04  5.910339470299E-04  5.228801551627E-04
  4.619528076596E-04  4.075586126055E-04  3.590631982409E-04  3.158868004715E-04
  2.775002100731E-04  2.434209688938E-04  2.132098039832E-04  1.864672884177E-04
  1.628307176116E-04  1.419711900673E-04  1.235908817936E-04  1.074205039735E-04
  9.321693387097E-05  8.076100940485E-05  6.985547826299E-05  6.032309287776E-05
  5.200484301240E-05  4.475831811716E-05  3.845619199811E-05  3.298482269699E-05
  2.824296081049E-05  2.414055978103E-05  2.059768197299E-05  1.754349461049E-05
  1.491534989928E-05  1.265794388861E-05  1.072254885344E-05  9.066314193954E-06
  7.651631061984E-06  6.445556133150E-06  5.419290150909E-06  4.547707075227E-06
  3.808929874220E-06  3.183949202150E-06  2.656281411191E-06  2.211662546947E-06
  1.837775178137E-06  1.524005108428E-06  1.261225212284E-06  1.041603826046E-06
  8.584353095949E-07  7.059905720067E-07  5.793855260836E-07  4.744656008404E-07
  3.877045976037E-07  3.161163239162E-07  2.571775797098E-07  2.087612020733E-07
  1.690779983417E-07  1.366265122079E-07  1.101496742261E-07  8.859748662748E-08
  7.109498304073E-08  5.691478680599E-08  4.545366742224E-08  3.621256363829E-08
  2.877960417758E-08  2.281571347382E-08  1.804244049856E-08  1.423169419028E-08
  1.119710955240E-08  8.786804568973E-09  6.877320075467E-09  5.368562984404E-09
  4.179598147066E-09  3.245155973720E-09  2.512742026531E-09  1.940251448617E-09
  1.494005552344E-09  1.147140411253E-09  8.782881056964E-10  6.705005667822E-10
  5.103739315369E-10  3.873381310388E-10  2.930822321434E-10  2.210909758473E-10
  1.662721199408E-10  1.246577053597E-10  9.316531705259E-11  6.940788234972E-11
  5.154261361616E-11  3.815141905105E-11  2.814652924831E-11  2.069626365145E-11
  1.516682990626E-11  1.107684423224E-11  8.061911184827E-12  5.847131094517E-12
  4.225833789851E-12  3.043185410546E-12  2.183595855173E-12  1.561079933695E-12
  1.111905805166E-12  7.890082268698E-13  5.577585019536E-13  3.927735270518E-13
  2.755177097920E-13  1.925075824152E-13  1.339727966025E-13  9.286136572521E-14
  6.410355419612E-14  4.406932815124E-14  3.017007858879E-14  2.056744256623E-14
  1.396130016661E-14  9.436061511521E-15  6.349687083388E-15  4.253903189336E-15
  2.837091715259E-15  1.883588968360E-15  1.244807218325E-15  8.188364638780E-16
  5.361014641849E-16  3.493227634831E-16  2.265227829041E-16  1.461762202132E-16
  9.386330253155E-17  5.997127924326E-17  3.812351870099E-17  2.411117155419E-17
  1.517024114658E-17  9.494854926524E-18  5.911237006591E-18  3.660452524397E-18
  2.254391756612E-18  1.380809247391E-18  8.410441655885E-19  5.093959465462E-19
  3.067708464157E-19  1.836811182472E-19  1.093392746186E-19  6.470203139125E-20
  3.805903073237E-20  2.225166960866E-20  1.292998290060E-20  0.000000000000E+00
  0.000000000000E+00  0.000000000000E+00  0.000000000000E+00  0.000000000000E+00
  0.000000000000E+00  0.000000000000E+00  0.000000000000E+00  0.000000000000E+00
  0.000000000000E+00  0.000000000000E+00  0.000000000000E+00  0.000000000000E+00
  0.000000000000E+00  0.000000000000E+00  0.000000000000E+00  0.000000000000E+00
  0.000000000000E+00  0.000000000000E+00  0.000000000000E+00  0.000000000000E+00
  0.000000000000E+00
</data>
</radfunc>
</valence-charge>
<pseudocore-charge matching-radius="0.677440133562"
 number-of-continuous-derivatives="4">
<annotation model-charge-form="Teter function with specified parameters" />
<radfunc>
<data npts="290">
  2.218326448648E+02  2.218111155885E+02  2.217467613366E+02  2.216394096516E+02
  2.214819193321E+02  2.212810218290E+02  2.210250685401E+02  2.207321008945E+02
  2.204028443908E+02  2.200190854589E+02  2.195867897030E+02  2.191172340980E+02
  2.185501948343E+02  2.179585019019E+02  2.173679480023E+02  2.166883729403E+02
  2.159066871497E+02  2.151665871018E+02  2.143355684750E+02  2.134028671232E+02
  2.123565532152E+02  2.114288808590E+02  2.104127037809E+02  2.093000592607E+02
  2.080823690506E+02  2.067504135981E+02  2.052943104679E+02  2.041144338477E+02
  2.028540887546E+02  2.015083488878E+02  2.000720727840E+02  1.985399086119E+02
  1.969063019765E+02  1.951655072479E+02  1.933116029824E+02  1.913385120660E+02
  1.892400272682E+02  1.870098429535E+02  1.854467447327E+02  1.838203931668E+02
  1.821289010691E+02  1.803703934100E+02  1.785430160654E+02  1.766449454951E+02
  1.746743994035E+02  1.726296484374E+02  1.705090289718E+02  1.683109570301E+02
  1.660339433841E+02  1.636766098674E+02  1.612377069349E+02  1.587161324848E+02
  1.561109519521E+02  1.534214196664E+02  1.506470014499E+02  1.477873984124E+02
  1.448425718756E+02  1.418127693341E+02  1.386985513302E+02  1.355008190829E+02
  1.322208426787E+02  1.288602895844E+02  1.254212532000E+02  1.219062811181E+02
  1.183184027035E+02  1.146611555493E+02  1.109386103073E+02  1.090542743669E+02
  1.071553933292E+02  1.052426355713E+02  1.033167064943E+02  1.013783489404E+02
  9.942834353754E+01  9.746750896509E+01  9.549670213533E+01  9.351681828237E+01
  9.152879095282E+01  8.953359189086E+01  8.753223081081E+01  8.552575505011E+01
  8.351524909551E+01  8.150183397565E+01  7.948666651273E+01  7.747093842665E+01
  7.545587528470E+01  7.344273529043E+01  7.143280790546E+01  6.942741229841E+01
  6.742789561546E+01  6.543563106777E+01  6.345201583132E+01  6.147846875554E+01
  5.951642787795E+01  5.756734774271E+01  5.563269652192E+01  5.371395293985E+01
  5.181260300108E+01  4.993013652493E+01  4.806804349007E+01  4.622781019429E+01
  4.441091523633E+01  4.261882532812E+01  4.085299094758E+01  3.911484184393E+01
  3.740578240934E+01  3.572718693289E+01  3.408039475448E+01  3.246670533884E+01
  3.088737329142E+01  2.934360334048E+01  2.783654531133E+01  2.636728912113E+01
  2.493685982432E+01  2.354621274073E+01  2.219622870036E+01  2.088770944007E+01
  1.962137318919E+01  1.839785048205E+01  1.721768023642E+01  1.608130613749E+01
  1.498907336732E+01  1.394122571966E+01  1.293790313939E+01  1.197913972504E+01
  1.106486223151E+01  1.019488910773E+01  9.368930102177E+00  8.586586465450E+00
  7.847351775969E+00  7.150613410345E+00  6.495654675304E+00  5.881657612567E+00
  5.307706482175E+00  4.772791923245E+00  4.275815784138E+00  3.815596606640E+00
  3.390875740952E+00  3.000324060246E+00  2.642549235305E+00  2.316103521464E+00
  2.019492001825E+00  1.751181222710E+00  1.509608149570E+00  1.293189364461E+00
  1.100330419645E+00  9.294352562506E-01  7.789155922932E-01  6.472001809083E-01
  5.327438375712E-01  4.340361344695E-01  3.496096612358E-01  2.780477540102E-01
  2.179915993825E-01  1.681466261954E-01  1.272881064873E-01  9.426589696874E-02
  6.800826427622E-02  4.752475069610E-02  3.190805190403E-02  2.033489428059E-02
  1.206591624669E-02  6.444575467442E-03  2.895121314210E-03  9.196892290005E-04
  9.459015372988E-05  6.588350700907E-05  5.443358492676E-04  1.299878925570E-03
  2.155689798530E-03  2.982021915378E-03  3.689918895284E-03  4.224942362154E-03
  4.561041171658E-03  4.694681890635E-03  4.639349507538E-03  4.420513339318E-03
  4.071136338394E-03  3.627787003158E-03  3.127392480291E-03  2.604649935050E-03
  2.090091644969E-03  1.608778370417E-03  1.179576202904E-03  8.149550834159E-04
  5.212332348648E-04  2.991814629314E-04  1.448950884040E-04  5.083943216084E-05
  6.977316811815E-06  1.893783837991E-06  2.384372923912E-05  6.166179524624E-05
  1.054897934869E-04  1.472942038607E-04  1.811638319230E-04  2.033944316722E-04
  2.123819762107E-04  2.083583758949E-04  1.930120863857E-04  1.690407548563E-04
  1.396836551444E-04  1.082783130665E-04  7.787888601457E-05  5.096428279203E-05
  2.925266029994E-05  1.362692441828E-05  4.164346230972E-06  2.534674949969E-07
  7.740223331142E-07  4.311287785331E-06  9.375396732676E-06  1.459862919846E-05
  1.888909623648E-05  2.152677345204E-05  2.219652011876E-05  2.096140911603E-05
  1.818728937704E-05  1.443506788323E-05  1.034008458678E-05  6.497893988049E-06
  3.372915320687E-06  1.241324552978E-06  1.731119734874E-07  0.000000000000E+00
  0.000000000000E+00  0.000000000000E+00  0.000000000000E+00  0.000000000000E+00
  0.000000000000E+00  0.000000000000E+00  0.000000000000E+00  0.000000000000E+00
  0.000000000000E+00  0.000000000000E+00  0.000000000000E+00  0.000000000000E+00
  0.000000000000E+00  0.000000000000E+00  0.000000000000E+00  0.000000000000E+00
  0.000000000000E+00  0.000000000000E+00  0.000000000000E+00  0.000000000000E+00
  0.000000000000E+00  0.000000000000E+00  0.000000000000E+00  0.000000000000E+00
  0.000000000000E+00  0.000000000000E+00  0.000000000000E+00  0.000000000000E+00
  0.000000000000E+00  0.000000000000E+00  0.000000000000E+00  0.000000000000E+00
  0.000000000000E+00  0.000000000000E+00  0.000000000000E+00  0.000000000000E+00
  0.000000000000E+00  0.000000000000E+00  0.000000000000E+00  0.000000000000E+00
  0.000000000000E+00  0.000000000000E+00  0.000000000000E+00  0.000000000000E+00
  0.000000000000E+00  0.000000000000E+00  0.000000000000E+00  0.000000000000E+00
  0.000000000000E+00  0.000000000000E+00  0.000000000000E+00  0.000000000000E+00
  0.000000000000E+00  0.000000000000E+00  0.000000000000E+00  0.000000000000E+00
  0.000000000000E+00  0.000000000000E+00  0.000000000000E+00  0.000000000000E+00
  0.000000000000E+00  0.000000000000E+00  0.000000000000E+00  0.000000000000E+00
  0.000000000000E+00  0.000000000000E+00
</data>
</radfunc>
</pseudocore-charge>
<semilocal-potentials set="scalar_relativistic">
<slps n="5" l="s" rc="1.40243320120" eref="-6.31776311111">
<radfunc>
<data npts="290">
 -2.345411417487E+01 -2.345535304314E+01 -2.345905546326E+01 -2.346522919688E+01
 -2.347428093181E+01 -2.348581809977E+01 -2.350050178147E+01 -2.351728798825E+01
 -2.353612679800E+01 -2.355804848572E+01 -2.358269700601E+01 -2.360941514429E+01
 -2.364160418082E+01 -2.367510423366E+01 -2.370844985937E+01 -2.374671110866E+01
 -2.379057486925E+01 -2.383196097380E+01 -2.387826458832E+01 -2.393002450232E+01
 -2.398782653879E+01 -2.403884272530E+01 -2.409447697623E+01 -2.415509484358E+01
 -2.422108005117E+01 -2.429283302491E+01 -2.437076875511E+01 -2.443353429097E+01
 -2.450020049686E+01 -2.457095176636E+01 -2.464597246890E+01 -2.472544534810E+01
 -2.480954965419E+01 -2.489845898574E+01 -2.499233881562E+01 -2.509134367673E+01
 -2.519561398383E+01 -2.530527246981E+01 -2.538142249754E+01 -2.546003644561E+01
 -2.554113226677E+01 -2.562472148873E+01 -2.571080851157E+01 -2.579938986659E+01
 -2.589045343691E+01 -2.598397764036E+01 -2.607993057585E+01 -2.617826913446E+01
 -2.627893807710E+01 -2.638186908081E+01 -2.648697975646E+01 -2.659417264069E+01
 -2.670333416571E+01 -2.681433361098E+01 -2.692702204094E+01 -2.704123123395E+01
 -2.715677260767E+01 -2.727343614666E+01 -2.739098933861E+01 -2.750917612584E+01
 -2.762771587935E+01 -2.774630240315E+01 -2.786460297693E+01 -2.798225744580E+01
 -2.809887736641E+01 -2.821404521895E+01 -2.832731369572E+01 -2.838308758387E+01
 -2.843820507714E+01 -2.849260162259E+01 -2.854621070698E+01 -2.859896384666E+01
 -2.865079057963E+01 -2.870161845968E+01 -2.875137305289E+01 -2.879997793657E+01
 -2.884735470077E+01 -2.889342295239E+01 -2.893810032229E+01 -2.898130247523E+01
 -2.902294312302E+01 -2.906293404093E+01 -2.910118508760E+01 -2.913760422843E+01
 -2.917209756296E+01 -2.920456935600E+01 -2.923492207302E+01 -2.926305641990E+01
 -2.928887138705E+01 -2.931226429840E+01 -2.933313086520E+01 -2.935136524494E+01
 -2.936686010558E+01 -2.937950669529E+01 -2.938919491790E+01 -2.939581341418E+01
 -2.939924964935E+01 -2.939939000675E+01 -2.939611988808E+01 -2.938932382024E+01
 -2.937888556905E+01 -2.936468825993E+01 -2.934661450581E+01 -2.932454654228E+01
 -2.929836637018E+01 -2.926795590583E+01 -2.923319713889E+01 -2.919397229795E+01
 -2.915016402415E+01 -2.910165555257E+01 -2.904833090181E+01 -2.899007507160E+01
 -2.892677424865E+01 -2.885831602076E+01 -2.878458959937E+01 -2.870548605056E+01
 -2.862089853491E+01 -2.853072255623E+01 -2.843485621955E+01 -2.833320049893E+01
 -2.822565951541E+01 -2.811214082594E+01 -2.799255572421E+01 -2.786681955444E+01
 -2.773485203958E+01 -2.759657762573E+01 -2.745192584499E+01 -2.730083169932E+01
 -2.714323606885E+01 -2.697908614844E+01 -2.680833591743E+01 -2.663094664827E+01
 -2.644688746080E+01 -2.625613593060E+01 -2.605867876097E+01 -2.585451253015E+01
 -2.564364452746E+01 -2.542609369454E+01 -2.520189169061E+01 -2.497108410421E+01
 -2.473373183770E+01 -2.448991269528E+01 -2.423972321052E+01 -2.398328075557E+01
 -2.372072598069E+01 -2.345222564085E+01 -2.317797587454E+01 -2.289820600970E+01