<?xml version="1.0" encoding="UTF-8" ?>
<psml version="1.1" energy_unit="hartree" length_unit="bohr"
 uuid="6b81d6d0-1d5f-11e8-6e3b-4dd5bdfd1270"
 xmlns="http://esl.cecam.org/PSML/ns/1.1">
<provenance creator="ONCVPSP-3.3.0+psml-3.3.0-73 (scalar-relativistic)"
 date="2018-03-01">
<annotation action="semilocal-pseudopotential-generation"
 action-cont="projectors-generation" />
<input-file name="oncvpsp-input">
<![CDATA[# atsym z nc nv iexc psfile
Na 11 1 3 -116133 upf
# n l f
1 0 2.0
2 0 2.0
2 1 6.0
3 0 1.0
# lmax
1
# l rc ep ncon nbas qcut
0 1.2 0.0 4 7 9.0
1 1.55 0.0 4 7 9.0
# lloc lpopt rc5 dvloc0
4 5 1.2 0.0
# l nproj debl
0 2 1.0
1 2 3.0
# icmod fcfact
0 0.04
# epsh1 epsh2 depsh
-12.0 12.0 0.02
# rlmax drl
4.0 0.01
 0
]]>
</input-file>
</provenance>
<pseudo-atom-spec atomic-label="Na" atomic-number="11" z-pseudo="9"
 flavor="Hamann&apos;s oncvpsp" relativity="scalar" spin-dft="no"
 core-corrections="no">
<annotation pseudo-energy="-45.5811694301" />
<exchange-correlation>
<annotation oncvpsp-xc-code="-116133" oncvpsp-xc-type="libxc-interface" />
<libxc-info number-of-functionals="2">
<functional name="Perdew, Burke &amp; Ernzerhof SOL (GGA)" type="exchange"
 id="116" />
<functional name="Perdew, Burke &amp; Ernzerhof SOL (GGA)" type="correlation"
 id="133" />
</libxc-info>
</exchange-correlation>
<valence-configuration total-valence-charge="9">
<shell n="2" l="s" occupation="2" />
<shell n="2" l="p" occupation="6" />
<shell n="3" l="s" occupation="1" />
</valence-configuration>
</pseudo-atom-spec>
<grid npts="457">
<annotation type="sampled from oncvpsp log grid"
 recipe="r(i:1..N) = r1*exp(a*(i-1)) + r=0; resampled"
 recipe-cont="r1: scale; a: step" scale="0.454545454545E-04"
 step="0.119285708653E-01" delta="0.500000000000E-02" rmax="44.2842989144" />
<grid-data>
  0.000000000000E+00  5.056846352100E-03  1.010065374127E-02  1.515259126661E-02
  2.017526317734E-02  2.530748255671E-02  3.062930526546E-02  3.576710657652E-02
  4.078208695772E-02  4.594884206075E-02  5.115630687128E-02  5.627859982527E-02
  6.191378916899E-02  6.730556456298E-02  7.316688385485E-02  7.859549147632E-02
  8.442687394831E-02  8.961552875446E-02  9.512306471111E-02  1.009690794195E-01
  1.071743748984E-01  1.124120865651E-01  1.179057700863E-01  1.236679350454E-01
  1.297117023806E-01  1.360508342627E-01  1.426997654326E-01  1.478988498720E-01
  1.532873563398E-01  1.588721861865E-01  1.646604922048E-01  1.706596877901E-01
  1.768774564356E-01  1.833217615728E-01  1.900008567704E-01  1.969232963057E-01
  2.040979461202E-01  2.115339951745E-01  2.166412719540E-01  2.218718588240E-01
  2.272287329835E-01  2.327149435126E-01  2.383336131088E-01  2.440879398637E-01
  2.499811990838E-01  2.560167451544E-01  2.621980134495E-01  2.685285222862E-01
  2.750118749283E-01  2.816517616365E-01  2.884519617695E-01  2.954163459344E-01
  3.025488781907E-01  3.098536183057E-01  3.173347240661E-01  3.249964536439E-01
  3.328431680207E-01  3.408793334694E-01  3.491095240967E-01  3.575384244465E-01
  3.661708321663E-01  3.750116607381E-01  3.840659422750E-01  3.933388303853E-01
  4.028356031061E-01  4.125616659075E-01  4.225225547692E-01  4.275928254264E-01
  4.327239393315E-01  4.379166266035E-01  4.431716261228E-01  4.484896856362E-01
  4.538715618639E-01  4.593180206062E-01  4.648298368535E-01  4.704077948957E-01
  4.760526884345E-01  4.817653206957E-01  4.875465045441E-01  4.933970625986E-01
  4.993178273498E-01  5.053096412780E-01  5.113733569733E-01  5.175098372570E-01
  5.237199553041E-01  5.300045947677E-01  5.363646499049E-01  5.428010257038E-01
  5.493146380122E-01  5.559064136684E-01  5.625772906324E-01  5.693282181200E-01
  5.761601567374E-01  5.830740786183E-01  5.900709675617E-01  5.971518191724E-01
  6.043176410025E-01  6.115694526945E-01  6.189082861269E-01  6.263351855604E-01
  6.338512077871E-01  6.414574222806E-01  6.491549113479E-01  6.569447702841E-01
  6.648281075275E-01  6.728060448178E-01  6.808797173557E-01  6.890502739639E-01
  6.973188772515E-01  7.056867037785E-01  7.141549442238E-01  7.227248035545E-01
  7.313975011972E-01  7.401742712116E-01  7.490563624661E-01  7.580450388157E-01
  7.671415792815E-01  7.763472782329E-01  7.856634455716E-01  7.950914069185E-01
  8.046325038015E-01  8.142880938471E-01  8.240595509733E-01  8.339482655850E-01
  8.439556447720E-01  8.540831125093E-01  8.643321098594E-01  8.747040951777E-01
  8.852005443198E-01  8.958229508517E-01  9.065728262619E-01  9.174517001770E-01
  9.284611205792E-01  9.396026540261E-01  9.508778858744E-01  9.622884205049E-01
  9.738358815510E-01  9.855219121296E-01  9.973481750751E-01  1.009316353176E+00
  1.021428149414E+00  1.033685287207E+00  1.046089510654E+00  1.058642584781E+00
  1.071346295799E+00  1.084202451348E+00  1.097212880765E+00  1.110379435334E+00
  1.123703988558E+00  1.137188436420E+00  1.150834697658E+00  1.164644714029E+00
  1.178620450598E+00  1.192763896005E+00  1.207077062757E+00  1.221561987510E+00
  1.236220731360E+00  1.251055380137E+00  1.266068044698E+00  1.281260861235E+00
  1.296635991569E+00  1.312195623468E+00  1.327941970950E+00  1.343877274601E+00
  1.360003801896E+00  1.376323847519E+00  1.392839733689E+00  1.409553810494E+00
  1.426468456220E+00  1.443586077694E+00  1.460909110627E+00  1.478440019954E+00
  1.496181300194E+00  1.514135475796E+00  1.532305101505E+00  1.550692762723E+00
  1.569301075876E+00  1.588132688787E+00  1.607190281052E+00  1.626476564425E+00
  1.645994283198E+00  1.665746214596E+00  1.685735169171E+00  1.705963991201E+00
  1.726435559096E+00  1.747152785805E+00  1.768118619235E+00  1.789336042665E+00
  1.810808075177E+00  1.832537772080E+00  1.854528225345E+00  1.876782564049E+00
  1.899303954817E+00  1.922095602275E+00  1.945160749502E+00  1.968502678496E+00
  1.992124710638E+00  2.016030207166E+00  2.040222569652E+00  2.064705240488E+00
  2.089481703374E+00  2.114555483814E+00  2.139930149620E+00  2.165609311415E+00
  2.191596623152E+00  2.217895782630E+00  2.244510532022E+00  2.271444658406E+00
  2.298701994307E+00  2.326286418239E+00  2.354201855257E+00  2.382452277520E+00
  2.411041704851E+00  2.439974205309E+00  2.469253895773E+00  2.498884942522E+00
  2.528871561832E+00  2.559218020574E+00  2.589928636821E+00  2.621007780463E+00
  2.652459873828E+00  2.684289392314E+00  2.716500865022E+00  2.749098875402E+00
  2.782088061907E+00  2.815473118650E+00  2.849258796074E+00  2.883449901627E+00
  2.918051300446E+00  2.953067916052E+00  2.988504731044E+00  3.024366787817E+00
  3.060659189271E+00  3.097387099542E+00  3.134555744736E+00  3.172170413673E+00
  3.210236458637E+00  3.248759296141E+00  3.287744407695E+00  3.327197340587E+00
  3.367123708674E+00  3.407529193178E+00  3.448419543496E+00  3.489800578018E+00
  3.531678184954E+00  3.574058323174E+00  3.616947023052E+00  3.660350387329E+00
  3.704274591977E+00  3.748725887080E+00  3.793710597725E+00  3.839235124898E+00
  3.885305946397E+00  3.931929617754E+00  3.979112773167E+00  4.026862126445E+00
  4.075184471962E+00  4.124086685625E+00  4.173575725853E+00  4.223658634563E+00
  4.274342538178E+00  4.325634648636E+00  4.377542264420E+00  4.430072771593E+00
  4.483233644852E+00  4.537032448590E+00  4.591476837973E+00  4.646574560029E+00
  4.702333454749E+00  4.758761456206E+00  4.815866593681E+00  4.873656992805E+00
  4.932140876718E+00  4.991326567239E+00  5.051222486046E+00  5.111837155879E+00
  5.173179201749E+00  5.235257352170E+00  5.298080440396E+00  5.361657405681E+00
  5.425997294549E+00  5.491109262084E+00  5.557002573229E+00  5.623686604107E+00
  5.691170843357E+00  5.759464893477E+00  5.828578472199E+00  5.898521413865E+00
  5.969303670831E+00  6.040935314881E+00  6.113426538660E+00  6.186787657124E+00
  6.261029109009E+00  6.336161458317E+00  6.412195395817E+00  6.489141740567E+00
  6.567011441454E+00  6.645815578751E+00  6.725565365696E+00  6.806272150085E+00
  6.887947415886E+00  6.970602784876E+00  7.054250018295E+00  7.138901018514E+00
  7.224567830737E+00  7.311262644705E+00  7.398997796442E+00  7.487785769999E+00
  7.577639199239E+00  7.668570869630E+00  7.760593720066E+00  7.853720844706E+00
  7.947965494843E+00  8.043341080781E+00  8.139861173750E+00  8.237539507835E+00
  8.336389981929E+00  8.436426661713E+00  8.537663781653E+00  8.640115747033E+00
  8.743797135997E+00  8.848722701629E+00  8.954907374049E+00  9.062366262537E+00
  9.171114657688E+00  9.281168033580E+00  9.392542049983E+00  9.505252554583E+00
  9.619315585238E+00  9.734747372261E+00  9.851564340728E+00  9.969783112817E+00
  1.008942051017E+01  1.021049355629E+01  1.033301947897E+01  1.045701571272E+01
  1.058249990127E+01  1.070948990008E+01  1.083800377888E+01  1.096805982423E+01
  1.109967654212E+01  1.123287266063E+01  1.136766713255E+01  1.150407913815E+01
  1.164212808780E+01  1.178183362486E+01  1.192321562836E+01  1.206629421590E+01
  1.221108974649E+01  1.235762282344E+01  1.250591429733E+01  1.265598526889E+01
  1.280785709212E+01  1.296155137723E+01  1.311708999375E+01  1.327449507368E+01
  1.343378901456E+01  1.359499448274E+01  1.375813441653E+01  1.392323202953E+01
  1.409031081388E+01  1.425939454365E+01  1.443050727817E+01  1.460367336551E+01
  1.477891744590E+01  1.495626445525E+01  1.513573962871E+01  1.531736850425E+01
  1.550117692631E+01  1.568719104942E+01  1.587543734201E+01  1.606594259012E+01
  1.625873390120E+01  1.645383870801E+01  1.665128477251E+01  1.685110018978E+01
  1.705331339206E+01  1.725795315276E+01  1.746504859060E+01  1.767462917368E+01
  1.788672472377E+01  1.810136542045E+01  1.831858180550E+01  1.853840478716E+01
  1.876086564461E+01  1.898599603234E+01  1.921382798473E+01  1.944439392055E+01
  1.967772664760E+01  1.991385936737E+01  2.015282567978E+01  2.039465958793E+01
  2.063939550299E+01  2.088706824902E+01  2.113771306801E+01  2.139136562483E+01
  2.164806201233E+01  2.190783875647E+01  2.217073282155E+01  2.243678161541E+01
  2.270602299480E+01  2.297849527073E+01  2.325423721398E+01  2.353328806055E+01
  2.381568751728E+01  2.410147576748E+01  2.439069347669E+01  2.468338179841E+01
  2.497958237999E+01  2.527933736855E+01  2.558268941698E+01  2.588968168998E+01
  2.620035787026E+01  2.651476216470E+01  2.683293931068E+01  2.715493458241E+01
  2.748079379740E+01  2.781056332297E+01  2.814429008284E+01  2.848202156384E+01
  2.882380582260E+01  2.916969149247E+01  2.951972779038E+01  2.987396452387E+01
  3.023245209815E+01  3.059524152333E+01  3.096238442161E+01  3.133393303467E+01
  3.170994023109E+01  3.209045951386E+01  3.247554502803E+01  3.286525156836E+01
  3.325963458718E+01  3.365875020223E+01  3.406265520466E+01  3.447140706711E+01
  3.488506395192E+01  3.530368471934E+01  3.572732893597E+01  3.615605688320E+01
  3.658992956580E+01  3.702900872059E+01  3.747335682524E+01  3.792303710714E+01
  3.837811355243E+01  3.883865091506E+01  3.930471472604E+01  3.977637130275E+01
  4.025368775838E+01  4.073673201148E+01  4.122557279562E+01  4.172027966917E+01
  4.222092302520E+01  4.272757410150E+01  4.324030499072E+01  4.375918865061E+01
  4.428429891442E+01
</grid-data>
</grid>
<valence-charge total-charge="9" is-unscreening-charge="yes"
 rescaled-to-z-pseudo="no">
<radfunc>
<data npts="457">
  1.687286188254E+01  1.687919165071E+01  1.689810577263E+01  1.692963563094E+01
  1.697342022141E+01  1.703089904164E+01  1.710400158547E+01  1.718749922227E+01
  1.728111437538E+01  1.738992504096E+01  1.751210970249E+01  1.764435925334E+01
  1.780341701861E+01  1.796863368107E+01  1.816234603396E+01  1.835452391198E+01
  1.857423456304E+01  1.878093024111E+01  1.901147780855E+01  1.926829159134E+01
  1.955393717142E+01  1.980502190408E+01  2.007771442068E+01  2.037347403439E+01
  2.069377049705E+01  2.104006043569E+01  2.141375746866E+01  2.171282247368E+01
  2.202857485394E+01  2.236148031286E+01  2.271193706173E+01  2.308025883130E+01
  2.346665557481E+01  2.387121169053E+01  2.429386160868E+01  2.473436261499E+01
  2.519226482228E+01  2.566687825735E+01  2.599210677854E+01  2.632397760619E+01
  2.666206124255E+01  2.700585527094E+01  2.735477865371E+01  2.770816590141E+01
  2.806526115865E+01  2.842521226155E+01  2.878706483260E+01  2.914975649039E+01
  2.951211126467E+01  2.987283432082E+01  3.023050711293E+01  3.058358309986E+01
  3.093038417514E+01  3.126909797816E+01  3.159777627034E+01  3.191433457680E+01
  3.221655330884E+01  3.250208059704E+01  3.276843707594E+01  3.301302287032E+01
  3.323312703757E+01  3.342593971992E+01  3.358856725376E+01  3.371805046845E+01
  3.381138638326E+01  3.386555347721E+01  3.387754065989E+01  3.386678665065E+01
  3.384438001210E+01  3.380996248932E+01  3.376318329074E+01  3.370370042709E+01
  3.363118210256E+01  3.354530815554E+01  3.344577154554E+01  3.333227988254E+01
  3.320455699414E+01  3.306234452559E+01  3.290540356680E+01  3.273351630011E+01
  3.254648766153E+01  3.234414700788E+01  3.212634978123E+01  3.189297916152E+01
  3.164394769756E+01  3.137919890586E+01  3.109870882611E+01  3.080248752160E+01
  3.049058051220E+01  3.016307012714E+01  2.982007676414E+01  2.946176004142E+01
  2.908831982841E+01  2.869999714136E+01  2.829707488925E+01  2.787987845628E+01
  2.744877610666E+01  2.700417919839E+01  2.654654219280E+01  2.607636244755E+01
  2.559417978155E+01  2.510057580146E+01  2.459617298040E+01  2.408163348139E+01
  2.355765771932E+01  2.302498265721E+01  2.248437983492E+01  2.193665313004E+01
  2.138263625389E+01  2.082318998756E+01  2.025919916587E+01  1.969156942017E+01
  1.912122369341E+01  1.854909854427E+01  1.797614026006E+01  1.740330080086E+01
  1.683153360073E+01  1.626178925403E+01  1.569501111824E+01  1.513213086621E+01
  1.457406402383E+01  1.402170552999E+01  1.347592535791E+01  1.293756423725E+01
  1.240742951736E+01  1.188629121168E+01  1.137487826294E+01  1.087387506738E+01
  1.038391829467E+01  9.905594037745E+00  9.439435323590E+00  8.985920012759E+00
  8.545469111050E+00  8.118445512259E+00  7.705153185836E+00  7.305836817897E+00
  6.920681908340E+00  6.549815320987E+00  6.193306277764E+00  5.851167782094E+00
  5.523358451029E+00  5.209784730264E+00  4.910303461304E+00  4.624724765614E+00
  4.352815206884E+00  4.094301189502E+00  3.848872549160E+00  3.616186290140E+00
  3.395870423400E+00  3.187527859969E+00  2.990740315484E+00  2.805072183765E+00
  2.630074340153E+00  2.465287838810E+00  2.310247472105E+00  2.164485323187E+00
  2.027534754562E+00  1.898934535453E+00  1.778231361942E+00  1.664982143312E+00
  1.558756034993E+00  1.459136225732E+00  1.365721479949E+00  1.278127440628E+00
  1.195987699224E+00  1.118954639970E+00  1.046700066315E+00  9.789156171317E-01
  9.153129798911E-01  8.556239074412E-01  7.996000444109E-01  7.470125688516E-01
  6.976516546285E-01  6.513257604621E-01  6.078607525037E-01  5.670988689944E-01
  5.288969092862E-01  4.931219100790E-01  4.596457096395E-01  4.283449400954E-01
  3.991009367822E-01  3.717996870119E-01  3.463317704743E-01  3.225922918683E-01
  3.004808063539E-01  2.799012384151E-01  2.607617947125E-01  2.429748715078E-01
  2.264569572302E-01  2.111285307524E-01  1.969139559354E-01  1.837413729896E-01
  1.715425871889E-01  1.602529554563E-01  1.498112713203E-01  1.401596487150E-01
  1.312434050669E-01  1.230109440712E-01  1.154136385225E-01  1.084057135065E-01
  1.019441302090E-01  9.598847053282E-02  9.050082264825E-02  8.544566754322E-02
  8.078976658237E-02  7.650205005188E-02  7.255350666268E-02  6.891707402785E-02
  6.556753023251E-02  6.248138678628E-02  5.963678348632E-02  5.701338600252E-02
  5.459228727703E-02  5.235591403640E-02  5.028793975707E-02  4.837320522809E-02
  4.659764738951E-02  4.494823644093E-02  4.341292044533E-02  4.198057598498E-02
  4.064096302796E-02  3.938468212712E-02  3.820313237430E-02  3.708846905431E-02
  3.603356052757E-02  3.503194438006E-02  3.407778323343E-02  3.316582078897E-02
  3.229133871259E-02  3.145011490172E-02  3.063838355690E-02  2.985279734764E-02
  2.909039183924E-02  2.834855224482E-02  2.762498248977E-02  2.691767652185E-02
  2.622489176592E-02  2.554512460246E-02  2.487708774068E-02  2.421968935525E-02
  2.357201385931E-02  2.293330419224E-02  2.230294550826E-02  2.168045015990E-02
  2.106544387863E-02  2.045765306247E-02  1.985689308801E-02  1.926305757070E-02
  1.867610850366E-02  1.809606721066E-02  1.752300605420E-02  1.695704084380E-02
  1.639832389403E-02  1.584703768516E-02  1.530338908258E-02  1.476760407421E-02
  1.423992298736E-02  1.372059614898E-02  1.320987995512E-02  1.270803331733E-02
  1.221531445541E-02  1.173197800721E-02  1.125827242811E-02  1.079443765397E-02
  1.034070300322E-02  9.897285295237E-03  9.464387164481E-03  9.042195551716E-03
  8.630880356374E-03  8.230593236760E-03  7.841466547777E-03  7.463612409017E-03
  7.097121899160E-03  6.742064375726E-03  6.398486921936E-03  6.066413924746E-03
  5.745846789806E-03  5.436763799955E-03  5.139120124000E-03  4.852847981649E-03
  4.577856968928E-03  4.314034545659E-03  4.061246687090E-03  3.819338687437E-03
  3.588136118280E-03  3.367445924810E-03  3.157057647707E-03  2.956744754442E-03
  2.766266061816E-03  2.585367230141E-03  2.413782308767E-03  2.251235312481E-03
  2.097441808814E-03  1.952110497180E-03  1.814944762159E-03  1.685644184884E-03
  1.563905998391E-03  1.449426474808E-03  1.341902234367E-03  1.241031468258E-03
  1.146515069396E-03  1.058057667042E-03  9.753685629839E-04  8.981625685818E-04
  8.261607433904E-04  7.590910373062E-04  6.966888392300E-04  6.386974361079E-04
  5.848683869064E-04  5.349618166181E-04  4.887466357819E-04  4.460006912594E-04
  4.065108541468E-04  3.700730507303E-04  3.364922423364E-04  3.055823597861E-04
  2.771661979589E-04  2.510752757121E-04  2.271496661012E-04  2.052378015100E-04
  1.851962579458E-04  1.668895223835E-04  1.501897466711E-04  1.349764911357E-04
  1.211364606703E-04  1.085632357377E-04  9.715700040580E-05  8.682426921674E-05
  7.747761445514E-05  6.903539509653E-05  6.142148850741E-05  5.456502585536E-05
  4.840013194724E-05  4.286567009378E-05  3.790499254899E-05  3.346569694792E-05
  2.949938909552E-05  2.596145241471E-05  2.281082431566E-05  2.000977971188E-05
  1.752372187788E-05  1.532098081657E-05  1.337261927851E-05  1.165224655066E-05
  1.013584010613E-05  8.801575180516E-06  7.629662312014E-06  6.602192854076E-06
  5.702992439118E-06  4.917482341476E-06  4.232548657195E-06  3.636419188062E-06
  3.118547888085E-06  2.669506702858E-06  2.280884606343E-06  1.945193616021E-06
  1.655781546371E-06  1.406751242445E-06  1.192886020147E-06  1.009581027687E-06
  8.527802336155E-07  7.189187407625E-07  6.048701222351E-07  5.078984751121E-07
  4.256148895155E-07  3.559380350314E-07  2.970585727778E-07  2.474071095140E-07
  2.056254197884E-07  1.705406729659E-07  1.411424138210E-07  1.165620579797E-07
  9.605467662309E-08  7.898285832274E-08  6.480244947557E-08  5.304998838033E-08
  4.333166140300E-08  3.531362279243E-08  2.871353242590E-08  2.329317800313E-08
  1.885205989894E-08  1.522182798036E-08  1.226147015734E-08  9.853162245168E-09
  7.898697861983E-09  6.316425565236E-09  5.038628255714E-09  4.009287062423E-09
  3.182178487787E-09  2.519259566372E-09  1.989301201548E-09  1.566734725143E-09
  1.230681109125E-09  9.641361802042E-10  7.532886828090E-10  5.869511375828E-10
  4.560861850263E-10  3.534135195737E-10  2.730846393175E-10  2.104144901087E-10
  1.616606974367E-10  1.238424810226E-10  9.459255921351E-11  7.203639488417E-11
  5.469403159209E-11  4.140053631922E-11  3.124171962104E-11  2.350236009353E-11
  1.762463088491E-11  1.317482319404E-11  9.816795632250E-12  7.290858069784E-12
  5.397032104227E-12  3.981824522174E-12  2.927811108798E-12  2.145461106087E-12
  1.566742017056E-12  1.140134145506E-12  8.267575300757E-13  5.973735651453E-13
  4.300719579434E-13  3.084927378339E-13  2.204644767784E-13  1.569650916326E-13
  1.113317372547E-13  7.866232359084E-14  5.536389113859E-14  3.881310725409E-14
  2.710203210650E-14  1.884848045223E-14  1.305512472594E-14  9.005229548154E-15
  6.185805396051E-15  4.231202174405E-15  2.881877036165E-15  1.954380294820E-15
  1.319599685461E-15  8.870581561735E-16  5.936298457527E-16  3.954665958027E-16
  2.622471275174E-16  1.730990383229E-16  1.137201392414E-16  7.435573297174E-17
  4.838392776298E-17  3.133085905986E-17  2.018843398482E-17  1.294393801107E-17
  8.257292698517E-18  5.240709343261E-18  3.309001379867E-18  2.078410394756E-18
  1.298571553373E-18  0.000000000000E+00  0.000000000000E+00  0.000000000000E+00
  0.000000000000E+00
</data>
</radfunc>
</valence-charge>
<semilocal-potentials set="scalar_relativistic">
<slps n="2" l="s" rc="1.20707706276" eref="-2.07905652144">
<radfunc>
<data npts="256">
 -1.666495489592E+01 -1.666614899875E+01 -1.666962393876E+01 -1.667513499259E+01
 -1.668223650082E+01 -1.669065975708E+01 -1.670004052170E+01 -1.670914035539E+01
 -1.671756072213E+01 -1.672531784922E+01 -1.673183092216E+01 -1.673669712963E+01
 -1.674008658614E+01 -1.674130240410E+01 -1.674035229361E+01 -1.673740728814E+01
 -1.673213412156E+01 -1.672571886518E+01 -1.671726755842E+01 -1.670660499768E+01
 -1.669356876696E+01 -1.668133032437E+01 -1.666740731380E+01 -1.665173477869E+01
 -1.663425197424E+01 -1.661490128124E+01 -1.659362684787E+01 -1.657637510675E+01
 -1.655798592721E+01 -1.653843423260E+01 -1.651769335185E+01 -1.649573439929E+01
 -1.647252557696E+01 -1.644803138193E+01 -1.642221169710E+01 -1.639502073907E+01
 -1.636640583193E+01 -1.633630597094E+01 -1.631537982040E+01 -1.629373845704E+01
 -1.627135530462E+01 -1.624820079447E+01 -1.622424199895E+01 -1.619944222663E+01
 -1.617376057706E+01 -1.614715145412E+01 -1.611956403756E+01 -1.609094171456E+01
 -1.606122147488E+01 -1.603033327652E+01 -1.599819939205E+01 -1.596473375068E+01
 -1.592984129604E+01 -1.589341738557E+01 -1.585534726379E+01 -1.581550564742E+01
 -1.577375646575E+01 -1.572995280316E+01 -1.568393709123E+01 -1.563554159502E+01
 -1.558458922972E+01 -1.553089473001E+01 -1.547426617483E+01 -1.541450684456E+01
 -1.535141735898E+01 -1.528479801400E+01 -1.521445120810E+01 -1.517781942208E+01
 -1.514018382870E+01 -1.510152135287E+01 -1.506180945985E+01 -1.502102620527E+01
 -1.497915027762E+01 -1.493616103283E+01 -1.489203852048E+01 -1.484676350155E+01
 -1.480031745780E+01 -1.475268259296E+01 -1.470384182634E+01 -1.465377877947E+01
 -1.460247775659E+01 -1.454992372005E+01 -1.449610226160E+01 -1.444099957087E+01
 -1.438460240217E+01 -1.432689804078E+01 -1.426787427002E+01 -1.420751934015E+01
 -1.414582194004E+01 -1.408277117265E+01 -1.401835653500E+01 -1.395256790316E+01
 -1.388539552296E+01 -1.381683000635E+01 -1.374686233398E+01 -1.367548386363E+01
 -1.360268634461E+01 -1.352846193785E+01 -1.345280324132E+01 -1.337570332045E+01
 -1.329715574319E+01 -1.321715461916E+01 -1.313569464266E+01 -1.305277113897E+01
 -1.296838011378E+01 -1.288251830554E+01 -1.279518324043E+01 -1.270637329020E+01
 -1.261608773290E+01 -1.252432681686E+01 -1.243109182854E+01 -1.233638516488E+01
 -1.224021041112E+01 -1.214257242549E+01 -1.204347743198E+01 -1.194293312322E+01
 -1.184094877535E+01 -1.173753537737E+01 -1.163270577775E+01 -1.152647485120E+01
 -1.141885968922E+01 -1.130987981822E+01 -1.119955744935E+01 -1.108791776462E+01
 -1.097498924444E+01 -1.086080404158E+01 -1.074539840753E+01 -1.062881317680E+01
 -1.051109431542E+01 -1.039229353969E+01 -1.027246901101E+01 -1.015168611263E+01
 -1.003001831329E+01 -9.907548121810E+00 -9.784368135638E+00 -9.660582184392E+00
 -9.536306567231E+00 -9.411671380236E+00 -9.286821926563E+00 -9.161920198328E+00
 -9.037146414844E+00 -8.912700597115E+00 -8.788804153503E+00 -8.665701446459E+00
 -8.543661305314E+00 -8.422978445678E+00 -8.303974752282E+00 -8.187000379439E+00
 -8.072434622007E+00 -7.960686510224E+00 -7.852195084243E+00 -7.747429317169E+00
 -7.646887549183E+00 -7.551096500360E+00 -7.460611781265E+00 -7.373417602115E+00
 -7.286945130797E+00 -7.201253436991E+00 -7.116342315036E+00 -7.032215123063E+00
 -6.948877814117E+00 -6.866339110449E+00 -6.784610541160E+00 -6.703706417485E+00
 -6.623643689515E+00 -6.544441640851E+00 -6.466121372756E+00 -6.388705035874E+00
 -6.312214782379E+00 -6.236671437361E+00 -6.162092926645E+00 -6.088492548678E+00
 -6.015877186503E+00 -5.944246344593E+00 -5.873591318808E+00 -5.803884124002E+00
 -5.735061279882E+00 -5.667059868017E+00 -5.599860191843E+00 -5.533457879823E+00
 -5.467842922091E+00 -5.403006033307E+00 -5.338937984536E+00 -5.275629659943E+00
 -5.213072052021E+00 -5.151256260289E+00 -5.090173490022E+00 -5.029815050985E+00
 -4.970172356196E+00 -4.911236920715E+00 -4.853000360405E+00 -4.795454390763E+00
 -4.738590825752E+00 -4.682401576538E+00 -4.626878650310E+00 -4.572014149051E+00
 -4.517800268201E+00 -4.464229295283E+00 -4.411293608427E+00 -4.358985674775E+00
 -4.307298048768E+00 -4.256223370339E+00 -4.205754363069E+00 -4.155883832384E+00
 -4.106604663979E+00 -4.057909822649E+00 -4.009792351801E+00 -3.962245373860E+00
 -3.915262091766E+00 -3.868835791538E+00 -3.822959845640E+00 -3.777627716545E+00
 -3.732832959568E+00 -3.688569223899E+00 -3.644830250941E+00 -3.601609869525E+00
 -3.558901988457E+00 -3.516700587640E+00 -3.474999709556E+00 -3.433793452822E+00
 -3.393075968905E+00 -3.352841462101E+00 -3.313084192066E+00 -3.273798477646E+00
 -3.234978700830E+00 -3.196619309915E+00 -3.158714821468E+00 -3.121259821058E+00
 -3.084248962973E+00 -3.047676969244E+00 -3.011538628267E+00 -2.975828793287E+00
 -2.940542380877E+00 -2.905674369525E+00 -2.871219798352E+00 -2.837173765964E+00
 -2.803531429442E+00 -2.770288003432E+00 -2.737438759318E+00 -2.704979024463E+00
 -2.672904181495E+00 -2.641209667634E+00 -2.609890974034E+00 -2.578943645155E+00
 -2.548363278141E+00 -2.518145522214E+00 -2.488286078068E+00 -2.458780697280E+00
 -2.429625181719E+00 -2.400815382966E+00 -2.372347201736E+00 -2.344216587304E+00
 -2.316419536944E+00 -2.288952095364E+00 -2.261810354154E+00 -2.234990451232E+00
</data>
</radfunc>
</slps>
<slps n="2" l="p" rc="1.55069276272" eref="-1.05307394531">
<radfunc>
<data npts="256">
 -2.322807578700E+01 -2.322903414101E+01 -2.323180430287E+01 -2.323613939228E+01
 -2.324160558949E+01 -2.324787802105E+01 -2.325451665457E+01 -2.326047522234E+01
 -2.326536192240E+01 -2.326899602110E+01 -2.327085886475E+01 -2.327066712616E+01
 -2.326793892330E+01 -2.326275978838E+01 -2.325425838963E+01 -2.324376391145E+01
 -2.322978740879E+01 -2.321511245055E+01 -2.319736410624E+01 -2.317623811915E+01
 -2.315142727339E+01 -2.312871659664E+01 -2.310328654141E+01 -2.307497128248E+01
 -2.304359963597E+01 -2.300899311096E+01 -2.297096361824E+01 -2.294007521690E+01
 -2.290705906760E+01 -2.287181963227E+01 -2.283425494893E+01 -2.279425570006E+01
 -2.275170418428E+01 -2.270647317270E+01 -2.265842462662E+01 -2.260740824833E+01
 -2.255325983165E+01 -2.249579937346E+01 -2.245555542714E+01 -2.241368829652E+01
 -2.237012997562E+01 -2.232480764408E+01 -2.227764321993E+01 -2.222855286968E+01
 -2.217744647306E+01 -2.212422704102E+01 -2.206879008606E+01 -2.201102294626E+01
 -2.195080406600E+01 -2.188800223947E+01 -2.182247582681E+01 -2.175407195691E+01
 -2.168262573631E+01 -2.160795948930E+01 -2.152988206073E+01 -2.144818821877E+01
 -2.136265820053E+01 -2.127305744656E+01 -2.117913657176E+01 -2.108063161667E+01
 -2.097726461587E+01 -2.086874450631E+01 -2.075476837952E+01 -2.063502305667E+01
 -2.050918693788E+01 -2.037693204788E+01 -2.023792617472E+01 -2.016578716663E+01
 -2.009183497955E+01 -2.001602780941E+01 -1.993832394883E+01 -1.985868183122E+01
 -1.977706006834E+01 -1.969341748104E+01 -1.960771312290E+01 -1.951990629696E+01
 -1.942995656577E+01 -1.933782375529E+01 -1.924346795351E+01 -1.914684950468E+01
 -1.904792900042E+01 -1.894666726904E+01 -1.884302536458E+01 -1.873696455731E+01
 -1.862844632728E+01 -1.851743236278E+01 -1.840388456548E+01 -1.828776506401E+01
 -1.816903623778E+01 -1.804766075264E+01 -1.792360161006E+01 -1.779682221136E+01
 -1.766728643842E+01 -1.753495875219E+01 -1.739980431044E+01 -1.726178910580E+01
 -1.712088012545E+01 -1.697704553348E+01 -1.683025487718E+01 -1.668047931837E+01
 -1.652769189101E+01 -1.637186778636E+01 -1.621298466699E+01 -1.605102301107E+01
 -1.588596648849E+01 -1.571780237041E+01 -1.554652197393E+01 -1.537212114368E+01
 -1.519460077233E+01 -1.501396736169E+01 -1.483023362670E+01 -1.464341914387E+01
 -1.445355104626E+01 -1.426066476651E+01 -1.406480482937E+01 -1.386602569486E+01
 -1.366439265252E+01 -1.345998276674E+01 -1.325288587232E+01 -1.304320561842E+01
 -1.283106055779E+01 -1.261658527664E+01 -1.239993155906E+01 -1.218126957727E+01
 -1.196078909722E+01 -1.173870068564E+01 -1.151523690196E+01 -1.129065345461E+01
 -1.106523029734E+01 -1.083927263671E+01 -1.061311181716E+01 -1.038710604491E+01
 -1.016164090635E+01 -9.937129631386E+00 -9.714013046316E+00 -9.492759155811E+00
 -9.273862288670E+00 -9.057841738306E+00 -8.845239826371E+00 -8.636619317339E+00
 -8.432560113652E+00 -8.233655165910E+00 -8.040505541139E+00 -7.853714604996E+00
 -7.673881291446E+00 -7.501592456216E+00 -7.337414338400E+00 -7.181883187675E+00
 -7.035495152132E+00 -6.898695562586E+00 -6.771867791906E+00 -6.655321918440E+00
 -6.549283348586E+00 -6.453881782424E+00 -6.369142770131E+00 -6.294982721828E+00
 -6.231196851927E+00 -6.177444595641E+00 -6.133248451953E+00 -6.097995326136E+00
 -6.070935346708E+00 -6.051184196175E+00 -6.037727705279E+00 -6.029428745636E+00
 -6.025036265168E+00 -6.023196279508E+00 -6.022464607587E+00 -6.021321156564E+00
 -6.018185623368E+00 -6.011434594798E+00 -5.999420199768E+00 -5.980490696364E+00
 -5.953013607017E+00 -5.915403064548E+00 -5.866151744765E+00 -5.803858379680E+00
 -5.735061279882E+00 -5.667059868017E+00 -5.599860191843E+00 -5.533457879823E+00
 -5.467842922091E+00 -5.403006033307E+00 -5.338937984536E+00 -5.275629659943E+00
 -5.213072052021E+00 -5.151256260289E+00 -5.090173490022E+00 -5.029815050985E+00
 -4.970172356196E+00 -4.911236920715E+00 -4.853000360405E+00 -4.795454390763E+00
 -4.738590825752E+00 -4.682401576538E+00 -4.626878650310E+00 -4.572014149051E+00
 -4.517800268201E+00 -4.464229295283E+00 -4.411293608427E+00 -4.358985674775E+00