<?xml version="1.0" encoding="UTF-8" ?>
<psml version="1.1" energy_unit="hartree" length_unit="bohr"
 uuid="ec82fd30-1d65-11e8-69e3-28077f5b2023"
 xmlns="http://esl.cecam.org/PSML/ns/1.1">
<provenance creator="ONCVPSP-3.3.0+psml-3.3.0-73 (scalar-relativistic)"
 date="2018-03-01">
<annotation action="semilocal-pseudopotential-generation"
 action-cont="projectors-generation" />
<input-file name="oncvpsp-input">
<![CDATA[# atsym z nc nv iexc psfile
Sn 50 6 5 -116133 upf
# n l f
1 0 2.0
2 0 2.0
2 1 6.0
3 0 2.0
3 1 6.0
3 2 10.0
4 0 2.0
4 1 6.0
4 2 10.0
5 0 2.0
5 1 2.0
# lmax
2
# l rc ep ncon nbas qcut
0 1.3 0.0 4 8 9.4
1 1.3 0.0 4 8 9.6
2 1.5 0.0 4 8 10.0
# lloc lpopt rc5 dvloc0
4 5 1.3 0.0
# l nproj debl
0 2 1.0
1 2 1.0
2 2 2.0
# icmod fcfact rcfact
3 3.5 1.5
# epsh1 epsh2 depsh
-12.0 12.0 0.02
# rlmax drl
6.0 0.01
 0
]]>
</input-file>
</provenance>
<pseudo-atom-spec atomic-label="Sn" atomic-number="50" z-pseudo="22"
 flavor="Hamann&apos;s oncvpsp" relativity="scalar" spin-dft="no"
 core-corrections="yes">
<annotation pseudo-energy="-214.687346532" />
<exchange-correlation>
<annotation oncvpsp-xc-code="-116133" oncvpsp-xc-type="libxc-interface" />
<libxc-info number-of-functionals="2">
<functional name="Perdew, Burke &amp; Ernzerhof SOL (GGA)" type="exchange"
 id="116" />
<functional name="Perdew, Burke &amp; Ernzerhof SOL (GGA)" type="correlation"
 id="133" />
</libxc-info>
</exchange-correlation>
<valence-configuration total-valence-charge="22">
<shell n="4" l="s" occupation="2" />
<shell n="4" l="p" occupation="6" />
<shell n="4" l="d" occupation="10" />
<shell n="5" l="s" occupation="2" />
<shell n="5" l="p" occupation="2" />
</valence-configuration>
</pseudo-atom-spec>
<grid npts="457">
<annotation type="sampled from oncvpsp log grid"
 recipe="r(i:1..N) = r1*exp(a*(i-1)) + r=0; resampled"
 recipe-cont="r1: scale; a: step" scale="0.100000000000E-04"
 step="0.119285708653E-01" delta="0.500000000000E-02" rmax="44.3197745331" />
<grid-data>
  0.000000000000E+00  5.000886690540E-03  1.010874525337E-02  1.516472982503E-02
  2.019142533776E-02  2.532775607628E-02  3.065384203313E-02  3.579575917496E-02
  4.081475699656E-02  4.598565112489E-02  5.119728757278E-02  5.632368393398E-02
  6.196338756004E-02  6.735948224037E-02  7.322549696456E-02  7.865845337823E-02
  8.449450730050E-02  8.968731867555E-02  9.519926665294E-02  1.010499645334E-01
  1.072602309997E-01  1.125021385341E-01  1.180002229791E-01  1.237670039391E-01
  1.298156128636E-01  1.361598229479E-01  1.428140804965E-01  1.480173298599E-01
  1.534101529953E-01  1.589994567820E-01  1.647923997425E-01  1.707964012112E-01
  1.770191508363E-01  1.834686184287E-01  1.901530641691E-01  1.970810491874E-01
  2.042614465274E-01  2.117034525111E-01  2.168148206685E-01  2.220495976987E-01
  2.274107631856E-01  2.329013686519E-01  2.385245392967E-01  2.442834757734E-01
  2.501814560125E-01  2.562218370865E-01  2.624080571211E-01  2.687436372522E-01
  2.752321836300E-01  2.818773894716E-01  2.886830371630E-01  2.956530004123E-01
  3.027912464542E-01  3.101018383086E-01  3.175889370927E-01  3.252568043899E-01
  3.331098046751E-01  3.411524077992E-01  3.493891915331E-01  3.578248441734E-01
  3.664641672112E-01  3.753120780643E-01  3.843736128771E-01  3.936539293864E-01
  4.031583098575E-01  4.128921640907E-01  4.228610325005E-01  4.279353648905E-01
  4.330705892692E-01  4.382674363404E-01  4.435266455765E-01  4.488489653234E-01
  4.542351529073E-01  4.596859747422E-01  4.652022064391E-01  4.707846329164E-01
  4.764340485114E-01  4.821512570935E-01  4.879370721786E-01  4.937923170448E-01
  4.997178248493E-01  5.057144387475E-01  5.117830120125E-01  5.179244081566E-01
  5.241395010545E-01  5.304291750672E-01  5.367943251680E-01  5.432358570700E-01
  5.497546873548E-01  5.563517436031E-01  5.630279645263E-01  5.697843001006E-01
  5.766217117018E-01  5.835411722423E-01  5.905436663092E-01  5.976301903049E-01
  6.048017525885E-01  6.120593736196E-01  6.194040861030E-01  6.268369351363E-01
  6.343589783579E-01  6.419712860982E-01  6.496749415314E-01  6.574710408298E-01
  6.653606933197E-01  6.733450216396E-01  6.814251618992E-01  6.896022638420E-01
  6.978774910081E-01  7.062520209002E-01  7.147270451510E-01  7.233037696928E-01
  7.319834149291E-01  7.407672159083E-01  7.496564224992E-01  7.586522995692E-01
  7.677561271640E-01  7.769692006900E-01  7.862928310983E-01  7.957283450714E-01
  8.052770852123E-01  8.149404102349E-01  8.247196951577E-01  8.346163314996E-01
  8.446317274776E-01  8.547673082073E-01  8.650245159058E-01  8.754048100966E-01
  8.859096678178E-01  8.965405838316E-01  9.072990708376E-01  9.181866596876E-01
  9.292048996039E-01  9.403553583991E-01  9.516396226999E-01  9.630592981723E-01
  9.746160097504E-01  9.863114018674E-01  9.981471386898E-01  1.010124904354E+00
  1.022246403206E+00  1.034513360045E+00  1.046927520365E+00  1.059490650610E+00
  1.072204538417E+00  1.085070992878E+00  1.098091844793E+00  1.111268946930E+00
  1.124604174293E+00  1.138099424385E+00  1.151756617477E+00  1.165577696887E+00
  1.179564629250E+00  1.193719404801E+00  1.208044037658E+00  1.222540566110E+00
  1.237211052904E+00  1.252057585538E+00  1.267082276565E+00  1.282287263884E+00
  1.297674711050E+00  1.313246807583E+00  1.329005769274E+00  1.344953838505E+00
  1.361093284567E+00  1.377426403982E+00  1.393955520830E+00  1.410682987080E+00
  1.427611182925E+00  1.444742517120E+00  1.462079427325E+00  1.479624380453E+00
  1.497379873019E+00  1.515348431495E+00  1.533532612673E+00  1.551935004025E+00
  1.570558224073E+00  1.589404922762E+00  1.608477781835E+00  1.627779515217E+00
  1.647312869400E+00  1.667080623833E+00  1.687085591319E+00  1.707330618414E+00
  1.727818585835E+00  1.748552408865E+00  1.769535037772E+00  1.790769458225E+00
  1.812258691724E+00  1.834005796024E+00  1.856013865577E+00  1.878286031964E+00
  1.900825464347E+00  1.923635369919E+00  1.946718994358E+00  1.970079622291E+00
  1.993720577758E+00  2.017645224691E+00  2.041856967388E+00  2.066359250996E+00
  2.091155562008E+00  2.116249428752E+00  2.141644421897E+00  2.167344154960E+00
  2.193352284820E+00  2.219672512237E+00  2.246308582384E+00  2.273264285373E+00
  2.300543456797E+00  2.328149978279E+00  2.356087778018E+00  2.384360831355E+00
  2.412973161331E+00  2.441928839267E+00  2.471231985338E+00  2.500886769162E+00
  2.530897410392E+00  2.561268179317E+00  2.592003397468E+00  2.623107438238E+00
  2.654584727497E+00  2.686439744227E+00  2.718677021158E+00  2.751301145412E+00
  2.784316759156E+00  2.817728560266E+00  2.851541302990E+00  2.885759798625E+00
  2.920388916209E+00  2.955433583203E+00  2.990898786202E+00  3.026789571636E+00
  3.063111046496E+00  3.099868379054E+00  3.137066799603E+00  3.174711601198E+00
  3.212808140412E+00  3.251361838097E+00  3.290378180154E+00  3.329862718316E+00
  3.369821070936E+00  3.410258923787E+00  3.451182030873E+00  3.492596215243E+00
  3.534507369826E+00  3.576921458264E+00  3.619844515763E+00  3.663282649952E+00
  3.707242041752E+00  3.751728946253E+00  3.796749693608E+00  3.842310689931E+00
  3.888418418210E+00  3.935079439229E+00  3.982300392499E+00  4.030087997209E+00
  4.078449053176E+00  4.127390441814E+00  4.176919127116E+00  4.227042156641E+00
  4.277766662521E+00  4.329099862471E+00  4.381049060821E+00  4.433621649551E+00
  4.486825109345E+00  4.540667010657E+00  4.595155014785E+00  4.650296874963E+00
  4.706100437462E+00  4.762573642712E+00  4.819724526424E+00  4.877561220741E+00
  4.936091955390E+00  4.995325058855E+00  5.055268959561E+00  5.115932187076E+00
  5.177323373321E+00  5.239451253801E+00  5.302324668846E+00  5.365952564873E+00
  5.430343995651E+00  5.495508123599E+00  5.561454221082E+00  5.628191671735E+00
  5.695729971796E+00  5.764078731457E+00  5.833247676235E+00  5.903246648350E+00
  5.974085608130E+00  6.045774635427E+00  6.118323931053E+00  6.191743818225E+00
  6.266044744044E+00  6.341237280972E+00  6.417332128344E+00  6.494340113884E+00
  6.572272195251E+00  6.651139461594E+00  6.730953135133E+00  6.811724572755E+00
  6.893465267628E+00  6.976186850839E+00  7.059901093049E+00  7.144619906166E+00
  7.230355345040E+00  7.317119609180E+00  7.404925044490E+00  7.493784145024E+00
  7.583709554765E+00  7.674714069422E+00  7.766810638255E+00  7.860012365914E+00
  7.954332514305E+00  8.049784504477E+00  8.146381918530E+00  8.244138501553E+00
  8.343068163571E+00  8.443184981534E+00  8.544503201313E+00  8.647037239728E+00
  8.750801686605E+00  8.855811306844E+00  8.962081042526E+00  9.069626015037E+00
  9.178461527217E+00  9.288603065544E+00  9.400066302330E+00  9.512867097958E+00
  9.627021503134E+00  9.742545761171E+00  9.859456310305E+00  9.977769786029E+00
  1.009750302346E+01  1.021867305974E+01  1.034129713646E+01  1.046539270210E+01
  1.059097741452E+01  1.071806914350E+01  1.084668597322E+01  1.097684620490E+01
  1.110856835936E+01  1.124187117967E+01  1.137677363382E+01  1.151329491743E+01
  1.165145445644E+01  1.179127190992E+01  1.193276717284E+01  1.207596037891E+01
  1.222087190346E+01  1.236752236630E+01  1.251593263469E+01  1.266612382631E+01
  1.281811731223E+01  1.297193471997E+01  1.312759793661E+01  1.328512911185E+01
  1.344455066119E+01  1.360588526913E+01  1.376915589236E+01  1.393438576307E+01
  1.410159839222E+01  1.427081757293E+01  1.444206738380E+01  1.461537219241E+01
  1.479075665872E+01  1.496824573862E+01  1.514786468749E+01  1.532963906374E+01
  1.551359473250E+01  1.569975786929E+01  1.588815496372E+01  1.607881282329E+01
  1.627175857717E+01  1.646701968009E+01  1.666462391625E+01  1.686459940325E+01
  1.706697459609E+01  1.727177829124E+01  1.747903963074E+01  1.768878810631E+01
  1.790105356358E+01  1.811586620634E+01  1.833325660082E+01  1.855325568003E+01
  1.877589474819E+01  1.900120548517E+01  1.922921995099E+01  1.945997059040E+01
  1.969349023749E+01  1.992981212034E+01  2.016896986578E+01  2.041099750417E+01
  2.065592947422E+01  2.090380062791E+01  2.115464623545E+01  2.140850199027E+01
  2.166540401416E+01  2.192538886233E+01  2.218849352867E+01  2.245475545102E+01
  2.272421251643E+01  2.299690306663E+01  2.327286590343E+01  2.355214029427E+01
  2.383476597780E+01  2.412078316953E+01  2.441023256757E+01  2.470315535838E+01
  2.499959322268E+01  2.529958834135E+01  2.560318340145E+01  2.591042160226E+01
  2.622134666149E+01  2.653600282143E+01  2.685443485529E+01  2.717668807355E+01
  2.750280833043E+01  2.783284203040E+01  2.816683613476E+01  2.850483816838E+01
  2.884689622640E+01  2.919305898112E+01  2.954337568889E+01  2.989789619716E+01
  3.025667095152E+01  3.061975100294E+01  3.098718801498E+01  3.135903427116E+01
  3.173534268241E+01  3.211616679460E+01  3.250156079613E+01  3.289157952569E+01
  3.328627847999E+01  3.368571382175E+01  3.408994238762E+01  3.449902169627E+01
  3.491300995662E+01  3.533196607610E+01  3.575594966902E+01  3.618502106504E+01
  3.661924131782E+01  3.705867221364E+01  3.750337628020E+01  3.795341679556E+01
  3.840885779711E+01  3.886976409068E+01  3.933620125976E+01  3.980823567488E+01
  4.028593450298E+01  4.076936571702E+01  4.125859810562E+01  4.175370128289E+01
  4.225474569828E+01  4.276180264666E+01  4.327494427842E+01  4.379424360976E+01
  4.431977453308E+01
</grid-data>
</grid>
<valence-charge total-charge="22" is-unscreening-charge="yes"
 rescaled-to-z-pseudo="no">
<radfunc>
<data npts="457">
  5.207285368220E+00  5.211721098763E+00  5.225410637772E+00  5.248078878922E+00
  5.279612241169E+00  5.321104842927E+00  5.374035181514E+00  5.434711546972E+00
  5.503020048791E+00  5.582790762603E+00  5.672849825471E+00  5.770909318741E+00
  5.889655974056E+00  6.013947628483E+00  6.160921842311E+00  6.308079265866E+00
  6.477990168512E+00  6.639490216009E+00  6.821552588244E+00  7.026794521121E+00
  7.258161832095E+00  7.464278707963E+00  7.691110259741E+00  7.940719992370E+00
  8.215367495223E+00  8.517523357677E+00  8.849883865176E+00  9.120732793141E+00
  9.411549178821E+00  9.723746291914E+00  1.005882136146E+01  1.041835647770E+01
  1.080401835167E+01  1.121755660311E+01  1.166080018122E+01  1.213565144688E+01
  1.264407735930E+01  1.318809711409E+01  1.357156516214E+01  1.397237890756E+01
  1.439115092696E+01  1.482848896154E+01  1.528499111399E+01  1.576124030040E+01
  1.625779788050E+01  1.677519638620E+01  1.731393126544E+01  1.787445155752E+01
  1.845714941584E+01  1.906234839608E+01  1.969029043244E+01  2.034112143171E+01
  2.101487542613E+01  2.171145724095E+01  2.243062365306E+01  2.317196304257E+01
  2.393487357227E+01  2.471853996950E+01  2.552190903344E+01  2.634366404822E+01
  2.718219834899E+01  2.803558836591E+01  2.890156655798E+01  2.977749474719E+01
  3.066033847061E+01  3.154664308425E+01  3.243251247488E+01  3.287394126543E+01
  3.331359136192E+01  3.375084447281E+01  3.418505229734E+01  3.461553646370E+01
  3.504158859141E+01  3.546247048925E+01  3.587741450035E+01  3.628562400606E+01
  3.668627410053E+01  3.707851244773E+01  3.746146033271E+01  3.783421391850E+01
  3.819584571973E+01  3.854540630368E+01  3.888192622860E+01  3.920441822839E+01
  3.951187965182E+01  3.980329516301E+01  4.007763970875E+01  4.033388175635E+01
  4.057098680413E+01  4.078792116421E+01  4.098365601547E+01  4.115717172142E+01
  4.130746240544E+01  4.143354077262E+01  4.153444316425E+01  4.160923482774E+01
  4.165701538112E+01  4.167692444750E+01  4.166814743118E+01  4.162992140325E+01
  4.156154106026E+01  4.146236471623E+01  4.133182028375E+01  4.116941119680E+01
  4.097472222416E+01  4.074742511903E+01  4.048728404770E+01  4.019416073781E+01
  3.986801928442E+01  3.950893055133E+01  3.911707610391E+01  3.869275161015E+01
  3.823636964752E+01  3.774846185490E+01  3.722968037189E+01  3.668079851131E+01
  3.610271061578E+01  3.549643105498E+01  3.486309232727E+01  3.420394223701E+01
  3.352034012836E+01  3.281375216557E+01  3.208574566099E+01  3.133798246305E+01
  3.057221142854E+01  2.979026001579E+01  2.899402504783E+01  2.818546270731E+01
  2.736657783683E+01  2.653941263063E+01  2.570603481420E+01  2.486852541889E+01
  2.402896626712E+01  2.318942729169E+01  2.235195381816E+01  2.151855394365E+01
  2.069118614719E+01  1.987174726700E+01  1.906206097778E+01  1.826386689694E+01
  1.747881044230E+01  1.670843355522E+01  1.595416639302E+01  1.521732008246E+01
  1.449908061249E+01  1.380050392969E+01  1.312251228442E+01  1.246589185898E+01
  1.183129169267E+01  1.121922390187E+01  1.063006517662E+01  1.006405951955E+01
  9.521322177408E+00  9.001844701402E+00  8.505501059344E+00  8.032054710588E+00
  7.581166544200E+00  7.152403571516E+00  6.745248256460E+00  6.359108360610E+00
  5.993327175086E+00  5.647194007894E+00  5.319956143288E+00  5.010835911220E+00
  4.719049902466E+00  4.443815508222E+00  4.184357221712E+00  3.939912007046E+00
  3.709734051784E+00  3.493098729821E+00  3.289305759152E+00  3.097681526039E+00
  2.917580564318E+00  2.748386195195E+00  2.589509696370E+00  2.440386373326E+00
  2.300470580572E+00  2.169236479907E+00  2.046178441190E+00  1.930811384794E+00
  1.822670976414E+00  1.721313687853E+00  1.626316736974E+00  1.537277919565E+00
  1.453815345337E+00  1.375567089682E+00  1.302190772234E+00  1.233363072593E+00
  1.168779192948E+00  1.108152276631E+00  1.051212790963E+00  9.977078820793E-01
  9.474007087705E-01  9.000697617122E-01  8.555081738567E-01  8.135230271628E-01
  7.739346602791E-01  7.365759812758E-01  7.012917890221E-01  6.679381063512E-01
  6.363815277267E-01  6.064985837284E-01  5.781751243139E-01  5.513057224690E-01
  5.257930995555E-01  5.015475733750E-01  4.784865297082E-01  4.565339178484E-01
  4.356197704346E-01  4.156797476897E-01  3.966547060002E-01  3.784902906125E-01
  3.611365520912E-01  3.445475860626E-01  3.286811956678E-01  3.134985760658E-01
  2.989640202575E-01  2.850446454447E-01  2.717101390977E-01  2.589325238723E-01
  2.466859404972E-01  2.349464477393E-01  2.236918385529E-01  2.129014715200E-01
  2.025561166995E-01  1.926378150162E-01  1.831297503405E-01  1.740161334306E-01
  1.652820969352E-01  1.569136006804E-01  1.488973465004E-01  1.412207018746E-01
  1.338716317280E-01  1.268386377039E-01  1.201107043066E-01  1.136772513258E-01
  1.075280919844E-01  1.016533962895E-01  9.604365909235E-02  9.068967239773E-02
  8.558250149044E-02  8.071346447778E-02  7.607411487400E-02  7.165622688037E-02
  6.745178304129E-02  6.345296398179E-02  5.965213995643E-02  5.604186396297E-02
  5.261486619641E-02  4.936404964030E-02  4.628248661256E-02  4.336341610188E-02
  4.060024174919E-02  3.798653034533E-02  3.551601073199E-02  3.318257300473E-02
  3.098026794883E-02  2.890330660392E-02  2.694605992778E-02  2.510305849217E-02
  2.336899217104E-02  2.173870978599E-02  2.020721868009E-02  1.876968419690E-02
  1.742142904543E-02  1.615793253572E-02  1.497482967231E-02  1.386791009516E-02
  1.283311685937E-02  1.186654504639E-02  1.096444020103E-02  1.012319658928E-02
  9.339355273819E-03  8.609602004997E-03  7.930764926797E-03  7.299812098861E-03
  6.713848837466E-03  6.170114880207E-03  5.665981381079E-03  5.198947744615E-03
  4.766638309563E-03  4.366798894398E-03  3.997293218481E-03  3.656099214088E-03
  3.341305245583E-03  3.051106252860E-03  2.783799836686E-03  2.537782303816E-03
  2.311544689686E-03  2.103668776208E-03  1.912823121586E-03  1.737759118348E-03
  1.577307094816E-03  1.430372474143E-03  1.295932003859E-03  1.173030067566E-03
  1.060775089084E-03  9.583360379943E-04  8.649390441838E-04  7.798641276165E-04
  7.024420483053E-04  6.320512801840E-04  5.681151114148E-04  5.100988725668E-04
  4.575072930819E-04  4.098819855188E-04  3.667990562335E-04  3.278668404139E-04
  2.927237587468E-04  2.610362924454E-04  2.324970729178E-04  2.068230819909E-04
  1.837539583328E-04  1.630504055224E-04  1.444926970974E-04  1.278792738641E-04
  1.130254287610E-04  9.976207463577E-05  8.793459039731E-05  7.740174115312E-05
  6.803466810674E-05  5.971594418254E-05  5.233869154496E-05  4.580575738691E-05
  4.002894456986E-05  3.492829390207E-05  3.043141503762E-05  2.647286316527E-05
  2.299355883092E-05  1.994024839858E-05  1.726500280358E-05  1.492475238693E-05
  1.288085572256E-05  1.109870046087E-05  9.547334312380E-06  8.199124387442E-06
  7.029443191425E-06  6.016379651765E-06  5.140473624834E-06  4.384472397482E-06
  3.733107761597E-06  3.172892300806E-06  2.691933587189E-06  2.279765043117E-06
  1.927192279519E-06  1.626153777229E-06  1.369594832809E-06  1.151353744435E-06
  9.660592671050E-07  8.090384194873E-07  6.762337771511E-07  5.641294384964E-07
  4.696849003378E-07  3.902761296062E-07  3.236431658600E-07  2.678436360804E-07
  2.212116084243E-07  1.823212550837E-07  1.499548360434E-07  1.230745552499E-07
  1.007978784214E-07  8.237593740895E-08  6.717467961406E-08  5.465845249051E-08
  4.437574259931E-08  3.594681608911E-08  2.905303287285E-08  2.342763022544E-08
  1.884779310872E-08  1.512784829313E-08  1.211343742987E-08  9.676540635796E-09
  7.711237070804E-09  6.130102445634E-09  4.861155521814E-09  3.845276544490E-09
  3.034030277769E-09  2.387834983704E-09  1.874426389313E-09  1.467572506455E-09
  1.146001188436E-09  8.925076015225E-10  6.932134313860E-10  5.369537009334E-10
  4.147706094709E-10  3.194968711304E-10  2.454136857015E-10  1.879707655979E-10
  1.435578123325E-10  1.093185240937E-10  8.299965833156E-11  6.282890151010E-11
  4.741634072965E-11  3.567521396610E-11  2.675835947900E-11  2.000741011280E-11
  1.491230194015E-11  1.107910397856E-11  8.204539600136E-12  6.055872049599E-12
  4.455075936601E-12  3.266422051471E-12  2.386771537524E-12  1.738013449347E-12
  1.261192224529E-12  9.119629851353E-13  6.570865627369E-13  4.717358100529E-13
  3.374327170300E-13  2.404742489527E-13  1.707354597865E-13  1.207627845398E-13
  8.508969686113E-14  5.972212941378E-14  4.175300844283E-14  2.907461165450E-14
  2.016475530877E-14  1.392848373704E-14  9.581318670936E-15  6.563503654435E-15
  4.477270779321E-15  3.041137699358E-15  2.056750177630E-15  1.384927725955E-15
  9.284315140976E-16  6.196217410036E-16  4.116555393632E-16  2.722375752043E-16
  1.792028522409E-16  1.174086729828E-16  7.655776108179E-17  4.968063338334E-17
  3.208253297491E-17  2.061618312062E-17  1.318196388660E-17  8.386061591073E-18
  5.307812411935E-18  3.342149334333E-18  2.093445891273E-18  1.304354701979E-18
  8.083507455276E-19  4.982482793682E-19  3.054251335922E-19  1.861861254186E-19
  1.128608286983E-19  6.802387133046E-20  4.076324716540E-20  0.000000000000E+00
  0.000000000000E+00  0.000000000000E+00  0.000000000000E+00  0.000000000000E+00
  0.000000000000E+00  0.000000000000E+00  0.000000000000E+00  0.000000000000E+00
  0.000000000000E+00
</data>
</radfunc>
</valence-charge>
<pseudocore-charge matching-radius="0.543235857070"
 number-of-continuous-derivatives="4">
<annotation model-charge-form="Teter function with specified parameters" />
<radfunc>
<data npts="290">
  1.433650114253E+02  1.433479518501E+02  1.432953176463E+02  1.432082117229E+02
  1.430871438324E+02  1.429280217114E+02  1.427253366276E+02  1.424934015063E+02
  1.422328152144E+02  1.419291976523E+02  1.415873136867E+02  1.412161240630E+02
  1.407680970294E+02  1.403008533207E+02  1.397505581737E+02  1.392019491035E+02
  1.385714179844E+02  1.379749356037E+02  1.373057640739E+02  1.365554546596E+02
  1.357146864716E+02  1.349700843943E+02  1.341553437412E+02  1.332643422392E+02
  1.322905247677E+02  1.312268949368E+02  1.300660122233E+02  1.291268036795E+02
  1.281249835253E+02  1.270569390606E+02  1.259189355946E+02  1.247071269343E+02
  1.234175690032E+02  1.220462370398E+02  1.205890468696E+02  1.190418807729E+02
  1.174006185096E+02  1.156611740825E+02  1.144450145939E+02  1.131822757923E+02
  1.118718315383E+02  1.105125962237E+02  1.091035335986E+02  1.076436663533E+02
  1.061320864816E+02  1.045679664434E+02  1.029505711425E+02  1.012792707253E+02
  9.955355419844E+01  9.777304385240E+01  9.593751046679E+01  9.404688925646E+01
  9.210129650318E+01  9.010104679735E+01  8.804667079337E+01  8.593893335812E+01
  8.377885196574E+01  8.156771516254E+01  7.930710089429E+01  7.699889445422E+01
  7.464530577362E+01  7.224888573926E+01  6.981254118252E+01  6.733954814555E+01
  6.483356299022E+01  6.229863087799E+01  5.973919111358E+01  5.845177641332E+01
  5.716007881461E+01  5.586476413354E+01  5.456652234495E+01  5.326606722979E+01
  5.196413593358E+01  5.066148843142E+01  4.935890689529E+01  4.805719495918E+01
  4.675717687811E+01  4.545969657713E+01  4.416561658656E+01  4.287581686029E+01
  4.159119347406E+01  4.031265720124E+01  3.904113196396E+01  3.777755315798E+01
  3.652286585053E+01  3.527802285046E+01  3.404398265137E+01  3.282170724873E+01
  3.161215983310E+01  3.041630236217E+01  2.923509301583E+01  2.806948353892E+01
  2.692041647782E+01  2.578882231805E+01  2.467561653132E+01  2.358169654154E+01
  2.250793862095E+01  2.145519472836E+01  2.042428930336E+01  1.941601603129E+01
  1.843113459536E+01  1.747036743350E+01  1.653439651891E+01  1.562386018452E+01
  1.473935001258E+01  1.388140781205E+01  1.305052270699E+01  1.224712836037E+01
  1.147160035810E+01  1.072425377893E+01  1.000534097575E+01  9.315049594250E+00
  8.653500854459E+00  8.020748120395E+00  7.416775782106E+00  6.841498473411E+00
  6.294760647149E+00  5.776336527947E+00  5.285930460353E+00  4.823177667599E+00
  4.387645433353E+00  3.978834715487E+00  3.596182197189E+00  3.239062776710E+00
  2.906792492696E+00  2.598631877328E+00  2.313789724615E+00  2.051427256028E+00
  1.810662660412E+00  1.590575979710E+00  1.390214306751E+00  1.208597256010E+00
  1.044722663232E+00  8.975724649707E-01  7.661187046753E-01  6.493296080861E-01
  5.461756673391E-01  4.556356706318E-01  3.767026125241E-01  3.083894191141E-01
  2.497344225091E-01  1.998065202790E-01  1.577099580017E-01  1.225886766163E-01
  9.363017111767E-02  7.006881312765E-02  5.118859703968E-02  3.632527766333E-02
  2.486787650001E-02  1.625954381018E-02  9.997774313251E-03  5.633985485678E-03
  2.772478751608E-03  1.068815131061E-03  2.276478397472E-04  6.462600852703E-08
  1.805019837399E-04  6.033015001042E-04  1.138985203905E-03  1.690331621944E-03
  2.188337112507E-03  2.588147763094E-03  2.865045609942E-03  3.010569126247E-03
  3.028841877949E-03  2.933175087072E-03  2.742999783521E-03  2.481172560653E-03
  2.171686048491E-03  1.837801519090E-03  1.500607032339E-03  1.177990743213E-03
  8.840059621780E-04  6.285928164935E-04  4.176113908739E-04  2.531334560668E-04
  1.339346571343E-04  5.612654985006E-05  1.386823150392E-05  1.004548557928E-07
  7.250835069989E-06  2.786670830789E-05  5.514189527630E-05  8.331447383446E-05
  1.079240071086E-04  1.259278078637E-04  1.356860571207E-04  1.368343046965E-04
  1.300685363804E-04  1.168722190891E-04  9.921633412012E-05  7.926238302647E-05
  5.909491000789E-05  4.050463209770E-05  2.483637052098E-05  1.290831735356E-05
  5.001492386838E-06  9.112762836467E-07  4.729636857664E-08  1.564191851824E-06
  4.504195972867E-06  7.933108094675E-06  1.105390860221E-05  1.328658551131E-05
  1.430810360660E-05  1.405215101497E-05  1.267361320956E-05  1.048698454476E-05
  7.890619377940E-06  5.289558500537E-06  3.028616590709E-06  1.344727388354E-06
  3.436957472678E-07  2.144743201998E-09  0.000000000000E+00  0.000000000000E+00
  0.000000000000E+00  0.000000000000E+00  0.000000000000E+00  0.000000000000E+00
  0.000000000000E+00  0.000000000000E+00  0.000000000000E+00  0.000000000000E+00
  0.000000000000E+00  0.000000000000E+00  0.000000000000E+00  0.000000000000E+00
  0.000000000000E+00  0.000000000000E+00  0.000000000000E+00  0.000000000000E+00
  0.000000000000E+00  0.000000000000E+00  0.000000000000E+00  0.000000000000E+00
  0.000000000000E+00  0.000000000000E+00  0.000000000000E+00  0.000000000000E+00
  0.000000000000E+00  0.000000000000E+00  0.000000000000E+00  0.000000000000E+00
  0.000000000000E+00  0.000000000000E+00  0.000000000000E+00  0.000000000000E+00
  0.000000000000E+00  0.000000000000E+00  0.000000000000E+00  0.000000000000E+00
  0.000000000000E+00  0.000000000000E+00  0.000000000000E+00  0.000000000000E+00
  0.000000000000E+00  0.000000000000E+00  0.000000000000E+00  0.000000000000E+00
  0.000000000000E+00  0.000000000000E+00  0.000000000000E+00  0.000000000000E+00
  0.000000000000E+00  0.000000000000E+00  0.000000000000E+00  0.000000000000E+00
  0.000000000000E+00  0.000000000000E+00  0.000000000000E+00  0.000000000000E+00
  0.000000000000E+00  0.000000000000E+00  0.000000000000E+00  0.000000000000E+00
  0.000000000000E+00  0.000000000000E+00  0.000000000000E+00  0.000000000000E+00
  0.000000000000E+00  0.000000000000E+00  0.000000000000E+00  0.000000000000E+00
  0.000000000000E+00  0.000000000000E+00  0.000000000000E+00  0.000000000000E+00
  0.000000000000E+00  0.000000000000E+00
</data>
</radfunc>
</pseudocore-charge>
<semilocal-potentials set="scalar_relativistic">
<slps n="4" l="s" rc="1.31324680758" eref="-4.91501767150">
<radfunc>
<data npts="290">
 -1.841648834865E+01 -1.841881635124E+01 -1.842599695762E+01 -1.843787372996E+01
 -1.845436746201E+01 -1.847602130803E+01 -1.850356356729E+01 -1.853502595642E+01
 -1.857030560249E+01 -1.861131877559E+01 -1.865738248671E+01 -1.870725296413E+01
 -1.876725097571E+01 -1.882959517970E+01 -1.890272475917E+01 -1.897531296972E+01
 -1.905835132616E+01 -1.913652454027E+01 -1.922378576318E+01 -1.932107955725E+01
 -1.942941968790E+01 -1.952476894307E+01 -1.962845954331E+01 -1.974109534706E+01
 -1.986329874516E+01 -1.999570565107E+01 -2.013895908026E+01 -2.025390373949E+01
 -2.037557838431E+01 -2.050424433131E+01 -2.064015365558E+01 -2.078354565044E+01
 -2.093464285800E+01 -2.109364665316E+01 -2.126073236888E+01 -2.143604395647E+01
 -2.161968818205E+01 -2.181172836879E+01 -2.194442837005E+01 -2.208085702661E+01
 -2.222099214324E+01 -2.236479824576E+01 -2.251222555083E+01 -2.266320891448E+01
 -2.281766676368E+01 -2.297550001610E+01 -2.313659099355E+01 -2.330080233507E+01
 -2.346797591602E+01 -2.363793178006E+01 -2.381046709110E+01 -2.398535511274E+01
 -2.416234422289E+01 -2.434115697156E+01 -2.452148918992E+01 -2.470300915890E+01
 -2.488535684565E+01 -2.506814321623E+01 -2.525094963291E+01 -2.543332734459E+01
 -2.561479707878E+01 -2.579484874350E+01 -2.597294124808E+01 -2.614850245131E+01
 -2.632092924643E+01 -2.648958779242E+01 -2.665381390189E+01 -2.673404906967E+01
 -2.681291359681E+01 -2.689031620194E+01 -2.696616384421E+01 -2.704036175711E+01
 -2.711281348568E+01 -2.718342092726E+01 -2.725208437587E+01 -2.731870257045E+01
 -2.738317274713E+01 -2.744539069560E+01 -2.750525081987E+01 -2.756264620352E+01
 -2.761746867981E+01 -2.766960890655E+01 -2.771895644625E+01 -2.776539985162E+01
 -2.780882675659E+01 -2.784912397322E+01 -2.788617759454E+01 -2.791987310370E+01
 -2.795009548950E+01 -2.797672936855E+01 -2.799965911425E+01 -2.801876899267E+01
 -2.803394330556E+01 -2.804506654047E+01 -2.805202352812E+01 -2.805469960702E+01
 -2.805298079521E+01 -2.804675396919E+01 -2.803590704981E+01 -2.802032919488E+01
 -2.799991099829E+01 -2.797454469530E+01 -2.794412437366E+01 -2.790854618998E+01
 -2.786770859099E+01 -2.782151253906E+01 -2.776986174152E+01 -2.771266288302E+01
 -2.764982586056E+01 -2.758126402038E+01 -2.750689439651E+01 -2.742663795023E+01
 -2.734041981035E+01 -2.724816951405E+01 -2.714982124827E+01 -2.704531409195E+01
 -2.693459225960E+01 -2.681760534705E+01 -2.669430858067E+01 -2.656466307165E+01
 -2.642863607762E+01 -2.628620127447E+01 -2.613733904175E+01 -2.598203676606E+01
 -2.582028916753E+01 -2.565209865579E+01 -2.547747572267E+01 -2.529643938050E+01
 -2.510901765626E+01 -2.491524815354E+01 -2.471517869626E+01 -2.450886807016E+01
 -2.429638688056E+01 -2.407781854726E+01 -2.385326046078E+01 -2.362282532648E+01
 -2.338664272714E+01 -2.314486093713E+01 -2.289764902544E+01 -2.264519928746E+01
 -2.238773004902E+01 -2.212548888836E+01 -2.185875632374E+01 -2.158785001502E+01
 -2.131312952660E+01 -2.103500169616E+01 -2.075392664762E+01 -2.047042447740E+01
 -2.018508262899E+01 -1.989856395154E+01 -1.961161541243E+01 -1.932507740042E+01