<?xml version="1.0" encoding="UTF-8" ?>
<psml version="1.1" energy_unit="hartree" length_unit="bohr"
 uuid="5b950980-1d60-11e8-4de5-cc5eef3482f2"
 xmlns="http://esl.cecam.org/PSML/ns/1.1">
<provenance creator="ONCVPSP-3.3.0+psml-3.3.0-73 (scalar-relativistic)"
 date="2018-03-01">
<annotation action="semilocal-pseudopotential-generation"
 action-cont="projectors-generation" />
<input-file name="oncvpsp-input">
<![CDATA[# atsym z nc nv iexc psfile
Sn 50 8 3 -116133 upf
# n l f
1 0 2.0
2 0 2.0
2 1 6.0
3 0 2.0
3 1 6.0
3 2 10.0
4 0 2.0
4 1 6.0
4 2 10.0
5 0 2.0
5 1 2.0
# lmax
2
# l rc ep ncon nbas qcut
0 2.25 0.0 4 7 3.4
1 2.6 0.0 4 7 3.4
2 1.85 0.0 4 8 8.4
# lloc lpopt rc5 dvloc0
4 5 1.85 0.0
# l nproj debl
0 2 1.9
1 2 2.5
2 2 2.0
# icmod fcfact
3 6.5 1.31
# epsh1 epsh2 depsh
-12.0 12.0 0.02
# rlmax drl
6.0 0.01
 0
]]>
</input-file>
</provenance>
<pseudo-atom-spec atomic-label="Sn" atomic-number="50" z-pseudo="14"
 flavor="Hamann&apos;s oncvpsp" relativity="scalar" spin-dft="no"
 core-corrections="yes">
<annotation pseudo-energy="-67.5593912146" />
<exchange-correlation>
<annotation oncvpsp-xc-code="-116133" oncvpsp-xc-type="libxc-interface" />
<libxc-info number-of-functionals="2">
<functional name="Perdew, Burke &amp; Ernzerhof SOL (GGA)" type="exchange"
 id="116" />
<functional name="Perdew, Burke &amp; Ernzerhof SOL (GGA)" type="correlation"
 id="133" />
</libxc-info>
</exchange-correlation>
<valence-configuration total-valence-charge="14">
<shell n="4" l="d" occupation="10" />
<shell n="5" l="s" occupation="2" />
<shell n="5" l="p" occupation="2" />
</valence-configuration>
</pseudo-atom-spec>
<grid npts="457">
<annotation type="sampled from oncvpsp log grid"
 recipe="r(i:1..N) = r1*exp(a*(i-1)) + r=0; resampled"
 recipe-cont="r1: scale; a: step" scale="0.100000000000E-04"
 step="0.119285708653E-01" delta="0.500000000000E-02" rmax="44.3197745331" />
<grid-data>
  0.000000000000E+00  5.000886690540E-03  1.010874525337E-02  1.516472982503E-02
  2.019142533776E-02  2.532775607628E-02  3.065384203313E-02  3.579575917496E-02
  4.081475699656E-02  4.598565112489E-02  5.119728757278E-02  5.632368393398E-02
  6.196338756004E-02  6.735948224037E-02  7.322549696456E-02  7.865845337823E-02
  8.449450730050E-02  8.968731867555E-02  9.519926665294E-02  1.010499645334E-01
  1.072602309997E-01  1.125021385341E-01  1.180002229791E-01  1.237670039391E-01
  1.298156128636E-01  1.361598229479E-01  1.428140804965E-01  1.480173298599E-01
  1.534101529953E-01  1.589994567820E-01  1.647923997425E-01  1.707964012112E-01
  1.770191508363E-01  1.834686184287E-01  1.901530641691E-01  1.970810491874E-01
  2.042614465274E-01  2.117034525111E-01  2.168148206685E-01  2.220495976987E-01
  2.274107631856E-01  2.329013686519E-01  2.385245392967E-01  2.442834757734E-01
  2.501814560125E-01  2.562218370865E-01  2.624080571211E-01  2.687436372522E-01
  2.752321836300E-01  2.818773894716E-01  2.886830371630E-01  2.956530004123E-01
  3.027912464542E-01  3.101018383086E-01  3.175889370927E-01  3.252568043899E-01
  3.331098046751E-01  3.411524077992E-01  3.493891915331E-01  3.578248441734E-01
  3.664641672112E-01  3.753120780643E-01  3.843736128771E-01  3.936539293864E-01
  4.031583098575E-01  4.128921640907E-01  4.228610325005E-01  4.279353648905E-01
  4.330705892692E-01  4.382674363404E-01  4.435266455765E-01  4.488489653234E-01
  4.542351529073E-01  4.596859747422E-01  4.652022064391E-01  4.707846329164E-01
  4.764340485114E-01  4.821512570935E-01  4.879370721786E-01  4.937923170448E-01
  4.997178248493E-01  5.057144387475E-01  5.117830120125E-01  5.179244081566E-01
  5.241395010545E-01  5.304291750672E-01  5.367943251680E-01  5.432358570700E-01
  5.497546873548E-01  5.563517436031E-01  5.630279645263E-01  5.697843001006E-01
  5.766217117018E-01  5.835411722423E-01  5.905436663092E-01  5.976301903049E-01
  6.048017525885E-01  6.120593736196E-01  6.194040861030E-01  6.268369351363E-01
  6.343589783579E-01  6.419712860982E-01  6.496749415314E-01  6.574710408298E-01
  6.653606933197E-01  6.733450216396E-01  6.814251618992E-01  6.896022638420E-01
  6.978774910081E-01  7.062520209002E-01  7.147270451510E-01  7.233037696928E-01
  7.319834149291E-01  7.407672159083E-01  7.496564224992E-01  7.586522995692E-01
  7.677561271640E-01  7.769692006900E-01  7.862928310983E-01  7.957283450714E-01
  8.052770852123E-01  8.149404102349E-01  8.247196951577E-01  8.346163314996E-01
  8.446317274776E-01  8.547673082073E-01  8.650245159058E-01  8.754048100966E-01
  8.859096678178E-01  8.965405838316E-01  9.072990708376E-01  9.181866596876E-01
  9.292048996039E-01  9.403553583991E-01  9.516396226999E-01  9.630592981723E-01
  9.746160097504E-01  9.863114018674E-01  9.981471386898E-01  1.010124904354E+00
  1.022246403206E+00  1.034513360045E+00  1.046927520365E+00  1.059490650610E+00
  1.072204538417E+00  1.085070992878E+00  1.098091844793E+00  1.111268946930E+00
  1.124604174293E+00  1.138099424385E+00  1.151756617477E+00  1.165577696887E+00
  1.179564629250E+00  1.193719404801E+00  1.208044037658E+00  1.222540566110E+00
  1.237211052904E+00  1.252057585538E+00  1.267082276565E+00  1.282287263884E+00
  1.297674711050E+00  1.313246807583E+00  1.329005769274E+00  1.344953838505E+00
  1.361093284567E+00  1.377426403982E+00  1.393955520830E+00  1.410682987080E+00
  1.427611182925E+00  1.444742517120E+00  1.462079427325E+00  1.479624380453E+00
  1.497379873019E+00  1.515348431495E+00  1.533532612673E+00  1.551935004025E+00
  1.570558224073E+00  1.589404922762E+00  1.608477781835E+00  1.627779515217E+00
  1.647312869400E+00  1.667080623833E+00  1.687085591319E+00  1.707330618414E+00
  1.727818585835E+00  1.748552408865E+00  1.769535037772E+00  1.790769458225E+00
  1.812258691724E+00  1.834005796024E+00  1.856013865577E+00  1.878286031964E+00
  1.900825464347E+00  1.923635369919E+00  1.946718994358E+00  1.970079622291E+00
  1.993720577758E+00  2.017645224691E+00  2.041856967388E+00  2.066359250996E+00
  2.091155562008E+00  2.116249428752E+00  2.141644421897E+00  2.167344154960E+00
  2.193352284820E+00  2.219672512237E+00  2.246308582384E+00  2.273264285373E+00
  2.300543456797E+00  2.328149978279E+00  2.356087778018E+00  2.384360831355E+00
  2.412973161331E+00  2.441928839267E+00  2.471231985338E+00  2.500886769162E+00
  2.530897410392E+00  2.561268179317E+00  2.592003397468E+00  2.623107438238E+00
  2.654584727497E+00  2.686439744227E+00  2.718677021158E+00  2.751301145412E+00
  2.784316759156E+00  2.817728560266E+00  2.851541302990E+00  2.885759798625E+00
  2.920388916209E+00  2.955433583203E+00  2.990898786202E+00  3.026789571636E+00
  3.063111046496E+00  3.099868379054E+00  3.137066799603E+00  3.174711601198E+00
  3.212808140412E+00  3.251361838097E+00  3.290378180154E+00  3.329862718316E+00
  3.369821070936E+00  3.410258923787E+00  3.451182030873E+00  3.492596215243E+00
  3.534507369826E+00  3.576921458264E+00  3.619844515763E+00  3.663282649952E+00
  3.707242041752E+00  3.751728946253E+00  3.796749693608E+00  3.842310689931E+00
  3.888418418210E+00  3.935079439229E+00  3.982300392499E+00  4.030087997209E+00
  4.078449053176E+00  4.127390441814E+00  4.176919127116E+00  4.227042156641E+00
  4.277766662521E+00  4.329099862471E+00  4.381049060821E+00  4.433621649551E+00
  4.486825109345E+00  4.540667010657E+00  4.595155014785E+00  4.650296874963E+00
  4.706100437462E+00  4.762573642712E+00  4.819724526424E+00  4.877561220741E+00
  4.936091955390E+00  4.995325058855E+00  5.055268959561E+00  5.115932187076E+00
  5.177323373321E+00  5.239451253801E+00  5.302324668846E+00  5.365952564873E+00
  5.430343995651E+00  5.495508123599E+00  5.561454221082E+00  5.628191671735E+00
  5.695729971796E+00  5.764078731457E+00  5.833247676235E+00  5.903246648350E+00
  5.974085608130E+00  6.045774635427E+00  6.118323931053E+00  6.191743818225E+00
  6.266044744044E+00  6.341237280972E+00  6.417332128344E+00  6.494340113884E+00
  6.572272195251E+00  6.651139461594E+00  6.730953135133E+00  6.811724572755E+00
  6.893465267628E+00  6.976186850839E+00  7.059901093049E+00  7.144619906166E+00
  7.230355345040E+00  7.317119609180E+00  7.404925044490E+00  7.493784145024E+00
  7.583709554765E+00  7.674714069422E+00  7.766810638255E+00  7.860012365914E+00
  7.954332514305E+00  8.049784504477E+00  8.146381918530E+00  8.244138501553E+00
  8.343068163571E+00  8.443184981534E+00  8.544503201313E+00  8.647037239728E+00
  8.750801686605E+00  8.855811306844E+00  8.962081042526E+00  9.069626015037E+00
  9.178461527217E+00  9.288603065544E+00  9.400066302330E+00  9.512867097958E+00
  9.627021503134E+00  9.742545761171E+00  9.859456310305E+00  9.977769786029E+00
  1.009750302346E+01  1.021867305974E+01  1.034129713646E+01  1.046539270210E+01
  1.059097741452E+01  1.071806914350E+01  1.084668597322E+01  1.097684620490E+01
  1.110856835936E+01  1.124187117967E+01  1.137677363382E+01  1.151329491743E+01
  1.165145445644E+01  1.179127190992E+01  1.193276717284E+01  1.207596037891E+01
  1.222087190346E+01  1.236752236630E+01  1.251593263469E+01  1.266612382631E+01
  1.281811731223E+01  1.297193471997E+01  1.312759793661E+01  1.328512911185E+01
  1.344455066119E+01  1.360588526913E+01  1.376915589236E+01  1.393438576307E+01
  1.410159839222E+01  1.427081757293E+01  1.444206738380E+01  1.461537219241E+01
  1.479075665872E+01  1.496824573862E+01  1.514786468749E+01  1.532963906374E+01
  1.551359473250E+01  1.569975786929E+01  1.588815496372E+01  1.607881282329E+01
  1.627175857717E+01  1.646701968009E+01  1.666462391625E+01  1.686459940325E+01
  1.706697459609E+01  1.727177829124E+01  1.747903963074E+01  1.768878810631E+01
  1.790105356358E+01  1.811586620634E+01  1.833325660082E+01  1.855325568003E+01
  1.877589474819E+01  1.900120548517E+01  1.922921995099E+01  1.945997059040E+01
  1.969349023749E+01  1.992981212034E+01  2.016896986578E+01  2.041099750417E+01
  2.065592947422E+01  2.090380062791E+01  2.115464623545E+01  2.140850199027E+01
  2.166540401416E+01  2.192538886233E+01  2.218849352867E+01  2.245475545102E+01
  2.272421251643E+01  2.299690306663E+01  2.327286590343E+01  2.355214029427E+01
  2.383476597780E+01  2.412078316953E+01  2.441023256757E+01  2.470315535838E+01
  2.499959322268E+01  2.529958834135E+01  2.560318340145E+01  2.591042160226E+01
  2.622134666149E+01  2.653600282143E+01  2.685443485529E+01  2.717668807355E+01
  2.750280833043E+01  2.783284203040E+01  2.816683613476E+01  2.850483816838E+01
  2.884689622640E+01  2.919305898112E+01  2.954337568889E+01  2.989789619716E+01
  3.025667095152E+01  3.061975100294E+01  3.098718801498E+01  3.135903427116E+01
  3.173534268241E+01  3.211616679460E+01  3.250156079613E+01  3.289157952569E+01
  3.328627847999E+01  3.368571382175E+01  3.408994238762E+01  3.449902169627E+01
  3.491300995662E+01  3.533196607610E+01  3.575594966902E+01  3.618502106504E+01
  3.661924131782E+01  3.705867221364E+01  3.750337628020E+01  3.795341679556E+01
  3.840885779711E+01  3.886976409068E+01  3.933620125976E+01  3.980823567488E+01
  4.028593450298E+01  4.076936571702E+01  4.125859810562E+01  4.175370128289E+01
  4.225474569828E+01  4.276180264666E+01  4.327494427842E+01  4.379424360976E+01
  4.431977453308E+01
</grid-data>
</grid>
<valence-charge total-charge="14" is-unscreening-charge="yes"
 rescaled-to-z-pseudo="no">
<radfunc>
<data npts="457">
  2.178023107373E-03  2.180869220609E-03  2.192335799840E-03  2.220225451415E-03
  2.277451511760E-03  2.385342595418E-03  2.576557663348E-03  2.869367115037E-03
  3.292660886437E-03  3.911882250788E-03  4.771724091700E-03  5.900552606526E-03
  7.534308752412E-03  9.554801621637E-03  1.234995224399E-02  1.558495066806E-02
  1.985744669307E-02  2.444645477118E-02  3.022973720473E-02  3.751525131697E-02
  4.668862124429E-02  5.570672125886E-02  6.653990854255E-02  7.954654474265E-02
  9.515316949458E-02  1.138665979815E-01  1.362878727248E-01  1.559603265746E-01
  1.784624436398E-01  2.041861402988E-01  2.335739269890E-01  2.671245552682E-01
  3.053990783232E-01  3.490272968106E-01  3.987145408613E-01  4.552487123222E-01
  5.195074778041E-01  5.924654617232E-01  6.464651666617E-01  7.051548900649E-01
  7.689038590733E-01  8.381046093204E-01  9.131735547689E-01  9.945514068702E-01
  1.082703407632E+00  1.178119336518E+00  1.281313246127E+00  1.392822876355E+00
  1.513208691250E+00  1.643052477155E+00  1.782955435024E+00  1.933535694224E+00
  2.095425169753E+00  2.269265679925E+00  2.455704237347E+00  2.655387422882E+00
  2.868954750444E+00  3.097030930488E+00  3.340216942362E+00  3.599079830782E+00
  3.874141150315E+00  4.165863994498E+00  4.474638563812E+00  4.800766250050E+00
  5.144442244336E+00  5.505736713015E+00  5.884574630602E+00  6.080503999552E+00
  6.280714412555E+00  6.485145977035E+00  6.693725553315E+00  6.906366021717E+00
  7.122965547114E+00  7.343406844607E+00  7.567556450403E+00  7.795264002338E+00
  8.026361534940E+00  8.260662794303E+00  8.497962578496E+00  8.738036109639E+00
  8.980638444225E+00  9.225503928653E+00  9.472345707397E+00  9.720855291570E+00
  9.970702196079E+00  1.022153365385E+01  1.047297441599E+01  1.072462664687E+01
  1.097606992360E+01  1.122686134913E+01  1.147653578875E+01  1.172460623933E+01
  1.197056434087E+01  1.221388103963E+01  1.245400741174E+01  1.269037565596E+01
  1.292240026349E+01  1.314947937218E+01  1.337099631168E+01  1.358632134484E+01
  1.379481360984E+01  1.399582326582E+01  1.418869384352E+01  1.437276480064E+01
  1.454737427966E+01  1.471186206391E+01  1.486557272535E+01  1.500785895517E+01
  1.513808506557E+01  1.525563064868E+01  1.535989437538E+01  1.545029791416E+01
  1.552628994696E+01  1.558735025605E+01  1.563299385288E+01  1.566277511693E+01
  1.567629190978E+01  1.567318962689E+01  1.565316514697E+01  1.561597063693E+01
  1.556141716819E+01  1.548937809895E+01  1.539979217590E+01  1.529266630850E+01
  1.516807796906E+01  1.502617717274E+01  1.486718799313E+01  1.469140957149E+01
  1.449921658059E+01  1.429105910847E+01  1.406746193188E+01  1.382902315490E+01
  1.357641219493E+01  1.331036710509E+01  1.303169123038E+01  1.274124920323E+01
  1.243996229351E+01  1.212880313724E+01  1.180878987827E+01  1.148097976684E+01
  1.114646226891E+01  1.080635174914E+01  1.046177980003E+01  1.011388729694E+01
  9.763816266908E+00  9.412701664428E+00  9.061663152485E+00  8.711796990007E+00
  8.364168128339E+00  8.019802618860E+00  7.679680431382E+00  7.344728778646E+00
  7.015816035765E+00  6.693746335228E+00  6.379254907948E+00  6.073004229156E+00
  5.775581014792E+00  5.487494099892E+00  5.209173215387E+00  4.940968664374E+00
  4.683151883388E+00  4.435916859134E+00  4.199382356771E+00  3.973594902636E+00
  3.758532452577E+00  3.554108667187E+00  3.360177707328E+00  3.176539457755E+00
  3.002945083303E+00  2.839102821159E+00  2.684683913988E+00  2.539328592066E+00
  2.402652017765E+00  2.274250112441E+00  2.153705193681E+00  2.040591359485E+00
  1.934479564935E+00  1.834942345858E+00  1.741558152508E+00  1.653915264150E+00
  1.571615262355E+00  1.494276046769E+00  1.421534382065E+00  1.353047968824E+00
  1.288497034549E+00  1.227585444045E+00  1.170041331552E+00  1.115617260549E+00
  1.064089921530E+00  1.015259383515E+00  9.689479218631E-01  9.249977170694E-01
  8.832654668614E-01  8.436162197408E-01  8.059224755792E-01  7.700649726058E-01
  7.359320809068E-01  7.034196309783E-01  6.724306136916E-01  6.428748393220E-01
  6.146685574767E-01  5.877340468399E-01  5.619991844003E-01  5.373970041761E-01
  5.138652555931E-01  4.913459715628E-01  4.697850559643E-01  4.491318996430E-01
  4.293391118367E-01  4.103626142044E-01  3.921619258915E-01  3.746999546382E-01
  3.579425711328E-01  3.418583335207E-01  3.264181576174E-01  3.115950035743E-01
  2.973635755406E-01  2.837000412176E-01  2.705817772481E-01  2.579871459832E-01
  2.458953551339E-01  2.342865486831E-01  2.231420337230E-01  2.124442389930E-01
  2.021765602129E-01  1.923233002808E-01  1.828695841243E-01  1.738012848718E-01
  1.651049557420E-01  1.567677678058E-01  1.487774533467E-01  1.411222544991E-01
  1.337908769065E-01  1.267724480537E-01  1.200564799917E-01  1.136328361495E-01
  1.074917019379E-01  1.016235588534E-01  9.601916180099E-02  9.066951935910E-02
  8.556587672454E-02  8.069970108158E-02  7.606266915329E-02  7.164665670472E-02
  6.744372977981E-02  6.344613746720E-02  5.964630600334E-02  5.603683403445E-02
  5.261048887271E-02  4.936020359502E-02  4.627907484622E-02  4.336036122151E-02
  4.059748211545E-02  3.798401693705E-02  3.551370460243E-02  3.318044322418E-02
  3.097828994595E-02  2.890146083296E-02  2.694433080115E-02  2.510143352864E-02
  2.336746131846E-02  2.173726488469E-02  2.020585303969E-02  1.876839226367E-02
  1.742020614227E-02  1.615677465967E-02  1.497373333784E-02  1.386687221351E-02
  1.283213464624E-02  1.186561595186E-02  1.096356185672E-02  1.012236676894E-02
  9.338571864239E-03  8.608862984783E-03  7.930068351164E-03  7.299156088929E-03
  6.713231572924E-03  6.169534594443E-03  5.665436358109E-03  5.198436317266E-03
  4.766158858541E-03  4.366349847921E-03  3.996873052270E-03  3.655706451549E-03
  3.340938458062E-03  3.050764059896E-03  2.783480906193E-03  2.537485352170E-03
  2.311268481687E-03  2.103412124910E-03  1.912584887990E-03  1.737538210964E-03
  1.577102469089E-03  1.430183131771E-03  1.295756991997E-03  1.172868477932E-03
  1.060626056983E-03  9.581987412677E-04  8.648127020936E-04  7.797479996822E-04
  7.023354330964E-04  6.319535140801E-04  5.680255673426E-04  5.100169587198E-04
  4.574324516311E-04  4.098136913199E-04  3.667368155359E-04  3.278101895766E-04
  2.926722629646E-04  2.609895444906E-04  2.324546918982E-04  2.067847121289E-04
  1.837192677663E-04  1.630190851306E-04  1.444644593527E-04  1.278538517115E-04
  1.130025745267E-04  9.974155896548E-05  8.791620122598E-05  7.738528270628E-05
  6.801995993453E-05  5.970282022706E-05  5.232699924124E-05  4.579535679815E-05
  4.001970755720E-05  3.492010332900E-05  3.042416400924E-05  2.646645430248E-05
  2.298790357922E-05  1.993526637146E-05  1.726062116006E-05  1.492090524284E-05
  1.287748359509E-05  1.109574974557E-05  9.544756792043E-06  8.196876771954E-06
  7.027486687627E-06  6.014679562413E-06  5.138998975555E-06  4.383195590624E-06
  3.732004255829E-06  3.171940315266E-06  2.691113828979E-06  2.279060456915E-06
  1.926587818077E-06  1.625636191537E-06  1.369152480707E-06  1.150976416480E-06
  9.657380285304E-07  8.087654671139E-07  6.760023101585E-07  5.639335419949E-07
  4.695194407318E-07  3.901366607857E-07  3.235258453045E-07  2.677451500137E-07
  2.211291052063E-07  1.822522860789E-07  1.498973032563E-07  1.230266650664E-07
  1.007581008455E-07  8.234297023079E-08  6.714741699046E-08  5.463595746339E-08
  4.435722311816E-08  3.593160414312E-08  2.904056637494E-08  2.341743732545E-08
  1.883947864156E-08  1.512108210699E-08  1.210794435321E-08  9.672091878245E-09
  7.707642871620E-09  6.127205804808E-09  4.858826868463E-09  3.843409214287E-09
  3.032536686791E-09  2.386643400083E-09  1.873478216589E-09  1.466820003716E-09
  1.145405562207E-09  8.920374131882E-10  6.928432716357E-10  5.366630895352E-10
  4.145430846433E-10  3.193192379751E-10  2.452753976899E-10  1.878634170262E-10
  1.434747230508E-10  1.092544007318E-10  8.295031875188E-11  6.279105135943E-11
  4.738739278767E-11  3.565314254076E-11  2.674158341217E-11  1.999469906793E-11
  1.490270157551E-11  1.107187639048E-11  8.199116072756E-12  6.051815690194E-12
  4.452052225408E-12  3.264175706814E-12  2.385108403057E-12  1.736786361422E-12
  1.260290022976E-12  9.113019979854E-13  6.566040311182E-13  4.713848292467E-13
  3.371783580547E-13  2.402905960012E-13  1.706033555644E-13  1.206681207312E-13
  8.502212279698E-14  5.967408034773E-14  4.171897714538E-14  2.905060452381E-14
  2.014788785644E-14  1.391668093170E-14  9.573093853103E-15  6.557796085957E-15
  4.473326769241E-15  3.038423980088E-15  2.054891048571E-15  1.383659638195E-15
  9.275703986451E-16  6.190396074567E-16  4.112637887960E-16  2.719751541319E-16
  1.790278813284E-16  1.172925583886E-16  7.648107139084E-17  4.963022630575E-17
  3.204956249815E-17  2.059472396513E-17  1.316806666699E-17  8.377107015751E-18
  5.302072074696E-18  3.338488514231E-18  2.091123470998E-18  1.302889163571E-18
  8.074308898693E-19  4.976740572086E-19  3.050686420792E-19  1.859660365781E-19
  1.127257159746E-19  6.794139815668E-20  4.071319596293E-20  0.000000000000E+00
  0.000000000000E+00  0.000000000000E+00  0.000000000000E+00  0.000000000000E+00
  0.000000000000E+00  0.000000000000E+00  0.000000000000E+00  0.000000000000E+00
  0.000000000000E+00
</data>
</radfunc>
</valence-charge>
<pseudocore-charge matching-radius="0.885909667818"
 number-of-continuous-derivatives="4">
<annotation model-charge-form="Teter function with specified parameters" />
<radfunc>
<data npts="290">
  9.468981589306E+01  9.468426096445E+01  9.466712026825E+01  9.463874704731E+01
  9.459929770077E+01  9.454742446805E+01  9.448131014168E+01  9.440559995526E+01
  9.432046737476E+01  9.422118315871E+01  9.410926485741E+01  9.398760771055E+01
  9.384056468175E+01  9.368697772354E+01  9.350577913078E+01  9.332479800670E+01
  9.311637247603E+01  9.291878676615E+01  9.269663892408E+01  9.244694259799E+01
  9.216636635670E+01  9.191719140859E+01  9.164379520309E+01  9.134390338070E+01
  9.101504482774E+01  9.065453824184E+01  9.025947858942E+01  8.993862746317E+01
  8.959516050015E+01  8.922757819050E+01  8.883429614735E+01  8.841364261493E+01
  8.796385631851E+01  8.748308474929E+01  8.696938299145E+01  8.642071321452E+01
  8.583494497164E+01  8.520985646334E+01  8.477014864862E+01  8.431123402289E+01
  8.383239049490E+01  8.333288059360E+01  8.281195244975E+01  8.226884096178E+01
  8.170276916307E+01  8.111294980927E+01  8.049858720478E+01  7.985887928892E+01
  7.919302000275E+01  7.850020195865E+01  7.777961943509E+01  7.703047171978E+01
  7.625196682462E+01  7.544332559594E+01  7.460378624324E+01  7.373260930942E+01
  7.282908310412E+01  7.189252962071E+01  7.092231095536E+01  6.991783624415E+01
  6.887856913080E+01  6.780403577342E+01  6.669383339383E+01  6.554763936695E+01
  6.436522084017E+01  6.314644486483E+01  6.189128901169E+01  6.125009455545E+01
  6.059985243104E+01  5.994059590825E+01  5.927236730573E+01  5.859521836544E+01
  5.790921063044E+01  5.721441582476E+01  5.651091623484E+01  5.579880509132E+01
  5.507818695021E+01  5.434917807231E+01  5.361190679966E+01  5.286651392755E+01
  5.211315307094E+01  5.135199102353E+01  5.058320810795E+01  4.980699851541E+01
  4.902357063294E+01  4.823314735626E+01  4.743596638640E+01  4.663228050772E+01
  4.582235784536E+01  4.500648209960E+01  4.418495275477E+01  4.335808526024E+01
  4.252621118078E+01  4.168967831366E+01  4.084885076978E+01  4.000410901580E+01
  3.915584987461E+01  3.830448648094E+01  3.745044818937E+01  3.659418043149E+01
  3.573614451932E+01  3.487681739197E+01  3.401669130250E+01  3.315627344203E+01
  3.229608549828E+01  3.143666314568E+01  3.057855546449E+01  2.972232428636E+01
  2.886854346393E+01  2.801779806248E+01  2.717068347177E+01  2.632780443626E+01
  2.548977400276E+01  2.465721238435E+01  2.383074574023E+01  2.301100487134E+01
  2.219862383226E+01  2.139423846025E+01  2.059848482316E+01  1.981199758806E+01
  1.903540831370E+01  1.826934367014E+01  1.751442358983E+01  1.677125935519E+01
  1.604045162854E+01  1.532258843097E+01  1.461824307780E+01  1.392797207891E+01
  1.325231301341E+01  1.259178238861E+01  1.194687349465E+01  1.131805426651E+01
  1.070576516632E+01  1.011041709957E+01  9.532389379543E+00  8.972027755090E+00
  8.429642517394E+00  7.905506701909E+00  7.399854402103E+00  6.912879211897E+00
  6.444732813833E+00  5.995523729988E+00  5.565316252472E+00  5.154129569950E+00
  4.761937106050E+00  4.388666084718E+00  4.034197336519E+00  3.698365358638E+00
  3.380958639788E+00  3.081720259456E+00  2.800348768899E+00  2.536499359017E+00
  2.289785317695E+00  2.059779776496E+00  1.846017743582E+00  1.647998416611E+00
  1.465187766080E+00  1.297021376089E+00  1.142907526078E+00  1.002230493463E+00
  8.743540536367E-01  7.586251503312E-01  6.543777060319E-01  5.609365390669E-01
  4.776213511689E-01  4.037507468651E-01  3.386462440230E-01  2.816362333583E-01
  2.320598437555E-01  1.892706699309E-01  1.526403193341E-01  1.215617362910E-01
  9.545226326051E-02  7.375640174848E-02  5.594823887654E-02  4.153350984896E-02
  3.005127154279E-02  2.107516812209E-02  1.421427586004E-02  9.113521143907E-03
  5.453672813083E-03  2.950917394039E-03  1.356033286051E-03  4.531873373553E-04
  5.838434349497E-05  1.760660010282E-05  2.046865535908E-04  5.189606228224E-04
  8.827562336904E-04  1.238766857880E-03  1.547371246378E-03  1.783953002445E-03
  1.936275095037E-03  2.001960867500E-03  1.986128595669E-03  1.899220797540E-03
  1.755062452251E-03  1.569174261716E-03  1.357358345393E-03  1.134564600180E-03
  9.140367173212E-04  7.067278785360E-04  5.209678096965E-04  3.623554935923E-04
  2.338457438601E-04  1.359932810356E-04  6.731512448745E-05  2.473113639827E-05
  4.043450906822E-06  4.182207173418E-07  8.837444376199E-06  2.449433621259E-05
  4.311242204031E-05  6.117587741553E-05  7.606612113344E-05  8.610687156787E-05
  9.052632237999E-05  8.935040183940E-05  8.324493123390E-05  7.332668314530E-05
  6.096377526422E-05  4.758457053364E-05  3.451147485632E-05  2.283203670195E-05
  1.331496444010E-05  6.373557154946E-06  2.074085495320E-06  1.823293560006E-07
  2.381774579263E-07  1.646207625974E-06  3.769640685151E-06  6.015980572758E-06
  7.904843731954E-06  9.111625667435E-06  9.484329373171E-06  9.034611114002E-06
  7.907409073923E-06  6.335999348147E-06  4.590680403600E-06  2.929389753993E-06
  1.557452521281E-06  6.015714562540E-07  1.004542034166E-07  0.000000000000E+00
  0.000000000000E+00  0.000000000000E+00  0.000000000000E+00  0.000000000000E+00
  0.000000000000E+00  0.000000000000E+00  0.000000000000E+00  0.000000000000E+00
  0.000000000000E+00  0.000000000000E+00  0.000000000000E+00  0.000000000000E+00
  0.000000000000E+00  0.000000000000E+00  0.000000000000E+00  0.000000000000E+00
  0.000000000000E+00  0.000000000000E+00  0.000000000000E+00  0.000000000000E+00
  0.000000000000E+00  0.000000000000E+00  0.000000000000E+00  0.000000000000E+00
  0.000000000000E+00  0.000000000000E+00  0.000000000000E+00  0.000000000000E+00
  0.000000000000E+00  0.000000000000E+00  0.000000000000E+00  0.000000000000E+00
  0.000000000000E+00  0.000000000000E+00  0.000000000000E+00  0.000000000000E+00
  0.000000000000E+00  0.000000000000E+00  0.000000000000E+00  0.000000000000E+00
  0.000000000000E+00  0.000000000000E+00  0.000000000000E+00  0.000000000000E+00
  0.000000000000E+00  0.000000000000E+00
</data>
</radfunc>
</pseudocore-charge>
<semilocal-potentials set="scalar_relativistic">
<slps n="5" l="s" rc="2.27326428537" eref="-0.389375108228">
<radfunc>
<data npts="290">
  3.232703936093E+01  3.230937155761E+01  3.225493148336E+01  3.216507117404E+01
  3.204065755369E+01  3.187798591348E+01  3.167216164089E+01  3.143851334162E+01
  3.117836415229E+01  3.087836256807E+01  3.054448691995E+01  3.018662711145E+01
  2.976098320564E+01  2.932424918325E+01  2.881902895782E+01  2.832493188521E+01
  2.776851044775E+01  2.725307405861E+01  2.668707895995E+01  2.606734985958E+01
  2.539091900262E+01  2.480715289510E+01  2.418422844914E+01  2.352120358679E+01
  2.281740213700E+01  2.207245945575E+01  2.128636750893E+01  2.067001369790E+01
  2.003105002225E+01  1.936994877910E+01  1.868733587907E+01  1.798399593814E+01
  1.726087549635E+01  1.651908412991E+01  1.575989325950E+01  1.498473250411E+01
  1.419518348771E+01  1.339297107163E+01  1.285203948045E+01  1.230688250965E+01
  1.175810149403E+01  1.120631688113E+01  1.065216583872E+01  1.009629972216E+01
  9.539381424522E+00  8.982082634360E+00  8.425081027692E+00  7.869057421577E+00
  7.314692917557E+00  6.762666063292E+00  6.213650060435E+00  5.668310045982E+00
  5.127300473086E+00  4.591262615615E+00  4.060822218649E+00  3.536587314628E+00
  3.019146222140E+00  2.509065741296E+00  2.006889556472E+00  1.513136853872E+00
  1.028301157994E+00  5.528493877070E-01  8.722112930172E-02 -3.681718793204E-01
 -8.129460622657E-01 -1.246746128917E+00 -1.669245021414E+00 -1.876161992629E+00
 -2.080143703398E+00 -2.281157094945E+00 -2.479170809374E+00 -2.674155172611E+00
 -2.866082176062E+00 -3.054925457160E+00 -3.240660279031E+00 -3.423263509475E+00
 -3.602713599479E+00 -3.778990561476E+00 -3.952075947586E+00 -4.121952828050E+00
 -4.288605770107E+00 -4.452020817529E+00 -4.612185471075E+00 -4.769088670084E+00
 -4.922720775464E+00 -5.073073554324E+00 -5.220140166482E+00 -5.363915153121E+00
 -5.504394427809E+00 -5.641575270168E+00 -5.775456322394E+00 -5.906037588909E+00
 -6.033320439342E+00 -6.157307615102E+00 -6.278003239722E+00 -6.395412833204E+00
 -6.509543330535E+00 -6.620403104537E+00 -6.728001993195E+00 -6.832351331557E+00
 -6.933463988269E+00 -7.031354406786E+00 -7.126038651186E+00 -7.217534456540E+00
 -7.305861283624E+00 -7.391040377772E+00 -7.473094831506E+00 -7.552049650529E+00
 -7.627931822543E+00 -7.700770388240E+00 -7.770596513695E+00 -7.837443563268E+00
 -7.901347171993E+00 -7.962345316293E+00 -8.020478381744E+00 -8.075789226487E+00
 -8.128323238765E+00 -8.178128386972E+00 -8.225255260495E+00 -8.269757099591E+00
 -8.311689812461E+00 -8.351111977674E+00 -8.388084830089E+00 -8.422672228450E+00
 -8.454940602871E+00 -8.484958880492E+00 -8.512798387693E+00 -8.538532727356E+00
 -8.562237629774E+00 -8.583990775960E+00 -8.603871592232E+00 -8.621961015101E+00
 -8.638341225619E+00 -8.653095352489E+00 -8.666307143378E+00 -8.678060603980E+00
 -8.688439604541E+00 -8.697527453666E+00 -8.705406439405E+00 -8.712157337803E+00
 -8.717858889328E+00 -8.722587243941E+00 -8.726415375992E+00 -8.729412470760E+00
 -8.731643285241E+00 -8.733167486905E+00 -8.734038975550E+00 -8.734305195183E+00
 -8.734006445076E+00 -8.733175201772E+00 -8.731835466755E+00 -8.730002157628E+00
 -8.727680563638E+00 -8.724865888771E+00 -8.721542906931E+00 -8.717685753014E+00