<?xml version="1.0" encoding="UTF-8" ?>
<psml version="1.1" energy_unit="hartree" length_unit="bohr"
 uuid="f796d5c0-1d65-11e8-59c4-6aa44dddc21c"
 xmlns="http://esl.cecam.org/PSML/ns/1.1">
<provenance creator="ONCVPSP-3.3.0+psml-3.3.0-73 (scalar-relativistic)"
 date="2018-03-01">
<annotation action="semilocal-pseudopotential-generation"
 action-cont="projectors-generation" />
<input-file name="oncvpsp-input">
<![CDATA[# atsym z nc nv iexc psfile
Te 52 6 5 -116133 upf
# n l f
1 0 2.0
2 0 2.0
2 1 6.0
3 0 2.0
3 1 6.0
3 2 10.0
4 0 2.0
4 1 6.0
4 2 10.0
5 0 2.0
5 1 4.0
# lmax
2
# l rc ep ncon nbas qcut
0 1.3 0.0 4 8 9.4
1 1.3 0.0 4 8 9.6
2 1.5 0.0 4 8 10.0
# lloc lpopt rc5 dvloc0
4 5 1.3 0.0
# l nproj debl
0 2 3.0
1 2 3.5
2 2 1.6
# icmod fcfact rcfact
3 5.0 1.5
# epsh1 epsh2 depsh
-12.0 12.0 0.02
# rlmax drl
6.0 0.01
 0
]]>
</input-file>
</provenance>
<pseudo-atom-spec atomic-label="Te" atomic-number="52" z-pseudo="24"
 flavor="Hamann&apos;s oncvpsp" relativity="scalar" spin-dft="no"
 core-corrections="yes">
<annotation pseudo-energy="-268.271114365" />
<exchange-correlation>
<annotation oncvpsp-xc-code="-116133" oncvpsp-xc-type="libxc-interface" />
<libxc-info number-of-functionals="2">
<functional name="Perdew, Burke &amp; Ernzerhof SOL (GGA)" type="exchange"
 id="116" />
<functional name="Perdew, Burke &amp; Ernzerhof SOL (GGA)" type="correlation"
 id="133" />
</libxc-info>
</exchange-correlation>
<valence-configuration total-valence-charge="24">
<shell n="4" l="s" occupation="2" />
<shell n="4" l="p" occupation="6" />
<shell n="4" l="d" occupation="10" />
<shell n="5" l="s" occupation="2" />
<shell n="5" l="p" occupation="4" />
</valence-configuration>
</pseudo-atom-spec>
<grid npts="457">
<annotation type="sampled from oncvpsp log grid"
 recipe="r(i:1..N) = r1*exp(a*(i-1)) + r=0; resampled"
 recipe-cont="r1: scale; a: step" scale="0.961538461538E-05"
 step="0.119285708653E-01" delta="0.500000000000E-02" rmax="44.1677972533" />
<grid-data>
  0.000000000000E+00  5.043542968859E-03  1.007408127726E-02  1.511272833334E-02
  2.012218676581E-02  2.524090447309E-02  3.054872670761E-02  3.567301166182E-02
  4.067479879938E-02  4.582796137488E-02  5.102172656014E-02  5.613054395614E-02
  6.175090843111E-02  6.712849932167E-02  7.297439884964E-02  7.838872507068E-02
  8.420476653556E-02  8.937977120117E-02  9.487281811536E-02  1.007034533227E-01
  1.068924241165E-01  1.121163565855E-01  1.175955875068E-01  1.233425935539E-01
  1.293704611469E-01  1.356929162517E-01  1.423243556345E-01  1.475097624955E-01
  1.528840930596E-01  1.584542305217E-01  1.642273088569E-01  1.702107219580E-01
  1.764121331045E-01  1.828394847779E-01  1.895010088340E-01  1.964052370456E-01
  2.035610120299E-01  2.109774985736E-01  2.160713392991E-01  2.212881657152E-01
  2.266309471882E-01  2.321027247771E-01  2.377066129641E-01  2.434458014276E-01
  2.493235568572E-01  2.553432248140E-01  2.615082316339E-01  2.678220863785E-01
  2.742883828320E-01  2.809108015471E-01  2.876931119396E-01  2.946391744343E-01
  3.017529426618E-01  3.090384657095E-01  3.164998904256E-01  3.241414637800E-01
  3.319675352815E-01  3.399825594533E-01  3.481910983688E-01  3.565978242478E-01
  3.652075221164E-01  3.740250925304E-01  3.830555543645E-01  3.923040476690E-01
  4.017758365960E-01  4.114763123947E-01  4.214109964812E-01  4.264679284390E-01
  4.315855435802E-01  4.367645701032E-01  4.420057449444E-01  4.473098138838E-01
  4.526775316504E-01  4.581096620302E-01  4.636069779745E-01  4.691702617102E-01
  4.748003048508E-01  4.804979085090E-01  4.862638834111E-01  4.920990500120E-01
  4.980042386121E-01  5.039802894755E-01  5.100280529492E-01  5.161483895846E-01
  5.223421702596E-01  5.286102763027E-01  5.349535996183E-01  5.413730428138E-01
  5.478695193275E-01  5.544439535595E-01  5.610972810022E-01  5.678304483742E-01
  5.746444137547E-01  5.815401467198E-01  5.885186284804E-01  5.955808520222E-01
  6.027278222464E-01  6.099605561134E-01  6.172800827867E-01  6.246874437802E-01
  6.321836931055E-01  6.397698974228E-01  6.474471361919E-01  6.552165018262E-01
  6.630790998481E-01  6.710360490463E-01  6.790884816348E-01  6.872375434144E-01
  6.954843939354E-01  7.038302066626E-01  7.122761691426E-01  7.208234831723E-01
  7.294733649704E-01  7.382270453500E-01  7.470857698942E-01  7.560507991330E-01
  7.651234087225E-01  7.743048896272E-01  7.835965483027E-01  7.929997068824E-01
  8.025157033650E-01  8.121458918053E-01  8.218916425070E-01  8.317543422171E-01
  8.417353943237E-01  8.518362190556E-01  8.620582536842E-01  8.724029527285E-01
  8.828717881612E-01  8.934662496191E-01  9.041878446146E-01  9.150380987499E-01
  9.260185559349E-01  9.371307786062E-01  9.483763479494E-01  9.597568641248E-01
  9.712739464943E-01  9.829292338523E-01  9.947243846585E-01  1.006661077274E+00
  1.018741010202E+00  1.030965902324E+00  1.043337493152E+00  1.055857543070E+00
  1.068527833587E+00  1.081350167590E+00  1.094326369601E+00  1.107458286036E+00
  1.120747785468E+00  1.134196758894E+00  1.147807120001E+00  1.161580805441E+00
  1.175519775106E+00  1.189626012407E+00  1.203901524556E+00  1.218348342851E+00
  1.232968522965E+00  1.247764145241E+00  1.262737314984E+00  1.277890162763E+00
  1.293224844717E+00  1.308743542853E+00  1.324448465367E+00  1.340341846952E+00
  1.356425949115E+00  1.372703060505E+00  1.389175497231E+00  1.405845603197E+00
  1.422715750436E+00  1.439788339441E+00  1.457065799514E+00  1.474550589108E+00
  1.492245196178E+00  1.510152138532E+00  1.528273964194E+00  1.546613251765E+00
  1.565172610786E+00  1.583954682115E+00  1.602962138301E+00  1.622197683960E+00
  1.641664056168E+00  1.661364024842E+00  1.681300393140E+00  1.701475997858E+00
  1.721893709832E+00  1.742556434350E+00  1.763467111562E+00  1.784628716901E+00
  1.806044261504E+00  1.827716792642E+00  1.849649394153E+00  1.871845186883E+00
  1.894307329126E+00  1.917039017075E+00  1.940043485280E+00  1.963324007103E+00
  1.986883895189E+00  2.010726501931E+00  2.034855219954E+00  2.059273482594E+00
  2.083984764385E+00  2.108992581557E+00  2.134300492536E+00  2.159912098446E+00
  2.185831043628E+00  2.212061016151E+00  2.238605748345E+00  2.265469017325E+00
  2.292654645533E+00  2.320166501280E+00  2.348008499295E+00  2.376184601287E+00
  2.404698816502E+00  2.433555202300E+00  2.462757864728E+00  2.492310959104E+00
  2.522218690614E+00  2.552485314901E+00  2.583115138680E+00  2.614112520344E+00
  2.645481870588E+00  2.677227653035E+00  2.709354384872E+00  2.741866637490E+00
  2.774769037140E+00  2.808066265586E+00  2.841763060773E+00  2.875864217502E+00
  2.910374588112E+00  2.945299083169E+00  2.980642672167E+00  3.016410384233E+00
  3.052607308844E+00  3.089238596550E+00  3.126309459709E+00  3.163825173225E+00
  3.201791075304E+00  3.240212568208E+00  3.279095119026E+00  3.318444260454E+00
  3.358265591580E+00  3.398564778679E+00  3.439347556023E+00  3.480619726695E+00
  3.522387163416E+00  3.564655809377E+00  3.607431679089E+00  3.650720859238E+00
  3.694529509549E+00  3.738863863664E+00  3.783730230028E+00  3.829134992788E+00
  3.875084612701E+00  3.921585628054E+00  3.968644655590E+00  4.016268391458E+00
  4.064463612155E+00  4.113237175501E+00  4.162596021607E+00  4.212547173866E+00
  4.263097739953E+00  4.314254912832E+00  4.366025971786E+00  4.418418283447E+00
  4.471439302849E+00  4.525096574483E+00  4.579397733377E+00  4.634350506177E+00
  4.689962712251E+00  4.746242264798E+00  4.803197171976E+00  4.860835538040E+00
  4.919165564496E+00  4.978195551270E+00  5.037933897885E+00  5.098389104660E+00
  5.159569773916E+00  5.221484611203E+00  5.284142426537E+00  5.347552135656E+00
  5.411722761284E+00  5.476663434419E+00  5.542383395632E+00  5.608891996380E+00
  5.676198700336E+00  5.744313084740E+00  5.813244841757E+00  5.883003779858E+00
  5.953599825217E+00  6.025043023119E+00  6.097343539397E+00  6.170511661869E+00
  6.244557801812E+00  6.319492495433E+00  6.395326405379E+00  6.472070322243E+00
  6.549735166110E+00  6.628331988103E+00  6.707871971961E+00  6.788366435624E+00
  6.869826832852E+00  6.952264754846E+00  7.035691931904E+00  7.120120235087E+00
  7.205561677908E+00  7.292028418043E+00  7.379532759059E+00  7.468087152168E+00
  7.557704197994E+00  7.648396648370E+00  7.740177408151E+00  7.833059537048E+00
  7.927056251493E+00  8.022180926511E+00  8.118447097629E+00  8.215868462801E+00
  8.314458884354E+00  8.414232390966E+00  8.515203179658E+00  8.617385617814E+00
  8.720794245228E+00  8.825443776170E+00  8.931349101484E+00  9.038525290702E+00
  9.146987594191E+00  9.256751445321E+00  9.367832462665E+00  9.480246452217E+00
  9.594009409643E+00  9.709137522559E+00  9.825647172830E+00  9.943554938904E+00
  1.006287759817E+01  1.018363212935E+01  1.030583571490E+01  1.042950574348E+01
  1.055465981240E+01  1.068131573015E+01  1.080949151891E+01  1.093920541714E+01
  1.107047588214E+01  1.120332159273E+01  1.133776145184E+01  1.147381458927E+01
  1.161150036434E+01  1.175083836871E+01  1.189184842913E+01  1.203455061028E+01
  1.217896521761E+01  1.232511280022E+01  1.247301415382E+01  1.262269032367E+01
  1.277416260755E+01  1.292745255884E+01  1.308258198955E+01  1.323957297342E+01
  1.339844784910E+01  1.355922922329E+01  1.372193997397E+01  1.388660325366E+01
  1.405324249270E+01  1.422188140261E+01  1.439254397945E+01  1.456525450720E+01
  1.474003756129E+01  1.491691801202E+01  1.509592102817E+01  1.527707208050E+01
  1.546039694547E+01  1.564592170882E+01  1.583367276932E+01  1.602367684255E+01
  1.621596096466E+01  1.641055249624E+01  1.660747912619E+01  1.680676887571E+01
  1.700845010222E+01  1.721255150344E+01  1.741910212148E+01  1.762813134694E+01
  1.783966892311E+01  1.805374495018E+01  1.827038988959E+01  1.848963456826E+01
  1.871151018308E+01  1.893604830528E+01  1.916328088494E+01  1.939324025556E+01
  1.962595913863E+01  1.986147064829E+01  2.009980829607E+01  2.034100599562E+01
  2.058509806757E+01  2.083211924438E+01  2.108210467531E+01  2.133508993142E+01
  2.159111101059E+01  2.185020434272E+01  2.211240679483E+01  2.237775567637E+01
  2.264628874449E+01  2.291804420942E+01  2.319306073993E+01  2.347137746881E+01
  2.375303399844E+01  2.403807040642E+01  2.432652725130E+01  2.461844557831E+01
  2.491386692525E+01  2.521283332836E+01  2.551538732830E+01  2.582157197624E+01
  2.613143083995E+01  2.644500801003E+01  2.676234810615E+01  2.708349628342E+01
  2.740849823883E+01  2.773740021769E+01  2.807024902030E+01  2.840709200855E+01
  2.874797711265E+01  2.909295283800E+01  2.944206827206E+01  2.979537309132E+01
  3.015291756842E+01  3.051475257924E+01  3.088092961019E+01  3.125150076551E+01
  3.162651877470E+01  3.200603700000E+01  3.239010944400E+01  3.277879075732E+01
  3.317213624641E+01  3.357020188137E+01  3.397304430394E+01  3.438072083559E+01
  3.479328948562E+01  3.521080895945E+01  3.563333866696E+01  3.606093873096E+01
  3.649366999573E+01  3.693159403568E+01  3.737477316411E+01  3.782327044208E+01
  3.827714968739E+01  3.873647548363E+01  3.920131318944E+01  3.967172894771E+01
  4.014778969508E+01  4.062956317142E+01  4.111711792948E+01  4.161052334464E+01
  4.210984962477E+01  4.261516782027E+01  4.312654983411E+01  4.364406843212E+01
  4.416779725331E+01
</grid-data>
</grid>
<valence-charge total-charge="24" is-unscreening-charge="yes"
 rescaled-to-z-pseudo="no">
<radfunc>
<data npts="457">
  1.045781358436E+01  1.046444788809E+01  1.048428168328E+01  1.051737682497E+01
  1.056340194436E+01  1.062394042611E+01  1.070112921418E+01  1.078956245807E+01
  1.088905345586E+01  1.100515131884E+01  1.113610966605E+01  1.127856604182E+01
  1.145088753988E+01  1.163103635937E+01  1.184377394600E+01  1.205646713115E+01
  1.230166489451E+01  1.253434870455E+01  1.279622225109E+01  1.309088807302E+01
  1.342237217724E+01  1.371707009490E+01  1.404072825996E+01  1.439610073830E+01
  1.478617735366E+01  1.521419611309E+01  1.568365375538E+01  1.606519485632E+01
  1.647384369769E+01  1.691137255345E+01  1.737963707746E+01  1.788057288176E+01
  1.841619000970E+01  1.898856481918E+01  1.959982870742E+01  2.025215301409E+01
  2.094772933714E+01  2.168874438354E+01  2.220906260864E+01  2.275115328029E+01
  2.331561579004E+01  2.390302170223E+01  2.451390687969E+01  2.514876259459E+01
  2.580802553792E+01  2.649206664082E+01  2.720117862120E+01  2.793556217284E+01
  2.869531071914E+01  2.948039366320E+01  3.029063807797E+01  3.112570879811E+01
  3.198508689740E+01  3.286804656467E+01  3.377363042711E+01  3.470062341403E+01
  3.564752530681E+01  3.661252218407E+01  3.759345704388E+01  3.858779997005E+01
  3.959261830505E+01  4.060454739994E+01  4.161976263029E+01  4.263395349537E+01
  4.364230075436E+01  4.463945769512E+01  4.561953677391E+01  4.610118258453E+01
  4.657610300342E+01  4.704340838371E+01  4.750217559515E+01  4.795144864139E+01
  4.839023947150E+01  4.881752899931E+01  4.923226834441E+01  4.963338030811E+01
  5.001976109772E+01  5.039028231174E+01  5.074379319827E+01  5.107912319779E+01
  5.139508478066E+01  5.169047658852E+01  5.196408688714E+01  5.221469733664E+01
  5.244108708317E+01  5.264203717379E+01  5.281633529382E+01  5.296278082325E+01
  5.308019020568E+01  5.316740261998E+01  5.322328594135E+01  5.324674297436E+01
  5.323671793674E+01  5.319220316833E+01  5.311224603477E+01  5.299595599139E+01
  5.284251176740E+01  5.265116862607E+01  5.242126565138E+01  5.215223300711E+01
  5.184359910935E+01  5.149499764917E+01  5.110617439781E+01  5.067699372317E+01
  5.020744474273E+01  4.969764703571E+01  4.914785583498E+01  4.855846661801E+01
  4.793001901609E+01  4.726319996157E+01  4.655884599468E+01  4.581794465483E+01
  4.504163488528E+01  4.423120638614E+01  4.338809785750E+01  4.251389408317E+01
  4.161032181561E+01  4.067924443386E+01  3.972265535903E+01  3.874267022618E+01
  3.774151782627E+01  3.672152984816E+01  3.568512946746E+01  3.463481884655E+01
  3.357316562754E+01  3.250278851782E+01  3.142634208485E+01  3.034650089347E+01
  2.926594313397E+01  2.818733390352E+01  2.711330831469E+01  2.604645461493E+01
  2.498929750738E+01  2.394428186743E+01  2.291375705010E+01  2.189996198038E+01
  2.090501121240E+01  1.993088213318E+01  1.897940347300E+01  1.805224526754E+01
  1.715091039634E+01  1.627672779938E+01  1.543084744786E+01  1.461423711800E+01
  1.382768098838E+01  1.307178005233E+01  1.234695430828E+01  1.165344666337E+01
  1.099132845985E+01  1.036050651060E+01  9.760731509573E+00  9.191607666698E+00
  8.652603404007E+00  8.143062941373E+00  7.662218596187E+00  7.209203621282E+00
  6.783065409268E+00  6.382778898590E+00  6.007260026454E+00  5.655379085510E+00
  5.325973854001E+00  5.017862382067E+00  4.729856332814E+00  4.460777427249E+00
  4.209474424817E+00  3.974829975668E+00  3.755767123896E+00  3.551254276268E+00
  3.360309299673E+00  3.182002491969E+00  3.015458461990E+00  2.859856920750E+00
  2.714432410004E+00  2.578473015068E+00  2.451317099777E+00  2.332345484820E+00
  2.220972091251E+00  2.116643654505E+00  2.018839073020E+00  1.927068753806E+00
  1.840873840280E+00  1.759825338452E+00  1.683523156525E+00  1.611595072035E+00
  1.543695639766E+00  1.479505052862E+00  1.418727968745E+00  1.361092310726E+00
  1.306348055405E+00  1.254266015207E+00  1.204636624632E+00  1.157268737989E+00
  1.111988445571E+00  1.068637914416E+00  1.027074258998E+00  9.871684463868E-01
  9.488042396625E-01  9.118771826546E-01  8.762936284058E-01  8.419698131436E-01
  8.088309769884E-01  7.768105321294E-01  7.458492787510E-01  7.158946686099E-01
  6.869001158206E-01  6.588243541162E-01  6.316308396029E-01  6.052871978153E-01
  5.797647137048E-01  5.550378630487E-01  5.310838836501E-01  5.078823846116E-01
  4.854149918915E-01  4.636650283073E-01  4.426172261185E-01  4.222574703069E-01
  4.025725706706E-01  3.835500608640E-01  3.651780225337E-01  3.474449327552E-01
  3.303395329236E-01  3.138507175237E-01  2.979674409681E-01  2.826786409718E-01
  2.679731769078E-01  2.538397816776E-01  2.402670256965E-01  2.272432916712E-01
  2.147567589210E-01  2.027953960707E-01  1.913469610182E-01  1.803990071562E-01
  1.699388949006E-01  1.599538076538E-01  1.504307713998E-01  1.413566771997E-01
  1.327183059227E-01  1.245023546125E-01  1.166954639516E-01  1.092842463447E-01
  1.022553142045E-01  9.559530806877E-02  8.929092423270E-02  8.332894163071E-02
  7.769624774483E-02  7.237986335857E-02  6.736696601404E-02  6.264491206570E-02
  5.820125725528E-02  5.402377576128E-02  5.010047770031E-02  4.641962507854E-02
  4.296974620825E-02  3.973964861772E-02  3.671843049191E-02  3.389549068806E-02
  3.126053737330E-02  2.880359533234E-02  2.651501199230E-02  2.438546220962E-02
  2.240595186065E-02  2.056782027514E-02  1.886274154896E-02  1.728272477083E-02
  1.582011319763E-02  1.446758241341E-02  1.321813750950E-02  1.206510932659E-02
  1.100214980354E-02  1.002322648300E-02  9.122616228780E-03  8.294898215426E-03
  7.534946254936E-03  6.837920530093E-03  6.199258806975E-03  5.614667201651E-03
  5.080110577219E-03  4.591802647425E-03  4.146195861994E-03  3.739971146702E-03
  3.370027568129E-03  3.033471989106E-03  2.727608776307E-03  2.449929616317E-03
  2.198103491003E-03  1.969966857302E-03  1.763514070684E-03  1.576888085758E-03
  1.408371461756E-03  1.256377695151E-03  1.119442896463E-03  9.962178233958E-04
  8.854602780162E-04  7.860278715568E-04  6.968711568517E-04  6.170271252049E-04
  5.456130617781E-04  4.818207513035E-04  4.249110240643E-04  3.742086306357E-04
  3.290974327838E-04  2.890158971756E-04  2.534528780889E-04  2.219436751150E-04
  1.940663518559E-04  1.694383018071E-04  1.477130479394E-04  1.285772629183E-04
  1.117479973962E-04  9.697010435092E-05  8.401384800641E-05  7.267268643633E-05
  6.276121750719E-05  5.411327835366E-05  4.658018908950E-05  4.002913193891E-05
  3.434165742400E-05  2.941230966510E-05  2.514736324352E-05  2.146366444343E-05
  1.828757003434E-05  1.555397708049E-05  1.320543757239E-05  1.119135197098E-05
  9.467236038627E-06  7.994055606562E-06  6.737624195696E-06  5.668058669205E-06
  4.759288351185E-06  3.988613296564E-06  3.336307643554E-06  2.785264221003E-06
  2.320676818870E-06  1.929756760264E-06  1.601480637475E-06  1.326366291783E-06
  1.096274326834E-06  9.042326476609E-07  7.442817114111E-07  6.113383611536E-07
  5.010762904605E-07  4.098213535106E-07  3.344600931096E-07  2.723600071851E-07
  2.213002130000E-07  1.794112976446E-07  1.451232634533E-07  1.171205881013E-07
  9.430352152629E-08  7.575483584283E-08  6.071133041970E-08  4.853947268576E-08
  3.871462642356E-08  3.080338374181E-08  2.444857502231E-08  1.935658335585E-08
  1.528663674990E-08  1.204179313609E-08  9.461370340968E-09  7.414606109767E-09
  5.795362368380E-09  4.517713536413E-09  3.512281202136E-09  2.723197156880E-09
  2.105593956957E-09  1.623537108680E-09  1.248325907472E-09  9.571011350435E-10
  7.317074381102E-10  5.577664672894E-10  4.239239163060E-10  3.212396223785E-10
  2.426950054090E-10  1.827964578820E-10  1.372569568417E-10  1.027412488721E-10
  7.666254199071E-11  5.702079766734E-11  4.227451526325E-11  3.123939512020E-11
  2.300850287118E-11  1.688957723711E-11  1.235596169598E-11  9.008326917696E-12
  6.544911219810E-12  4.738462091533E-12  3.418431259002E-12  2.457274120550E-12
  1.759944472465E-12  1.255867949506E-12  8.928313868597E-13  6.323477053897E-13
  4.461529720309E-13  3.135689500958E-13  2.195247819078E-13  1.530787364499E-13
  1.063178809192E-13  7.354225520913E-14  5.066237729542E-14  3.475607414142E-14
  2.374382424324E-14  1.615189321284E-14  1.094023751579E-14  7.377990358422E-15
  4.953756136264E-15  3.311260004046E-15  2.203386556605E-15  1.459497000622E-15
  9.622920063877E-16  6.315059976864E-16  4.124682153086E-16  2.681149796689E-16
  1.734379530574E-16  1.116437050943E-16  7.150981459332E-17  4.557349440831E-17
  2.889667789209E-17  1.822828188305E-17  1.143875572944E-17  7.140353885848E-18
  4.433440882774E-18  2.737879509474E-18  1.681557027239E-18  1.027079335681E-18
  6.238244218927E-19  3.767533976338E-19  2.262342439027E-19  1.350626305651E-19
  8.015974328888E-20  4.729216735795E-20  2.773318923614E-20  0.000000000000E+00
  0.000000000000E+00  0.000000000000E+00  0.000000000000E+00  0.000000000000E+00
  0.000000000000E+00  0.000000000000E+00  0.000000000000E+00  0.000000000000E+00
  0.000000000000E+00  0.000000000000E+00  0.000000000000E+00  0.000000000000E+00
  0.000000000000E+00  0.000000000000E+00  0.000000000000E+00  0.000000000000E+00
  0.000000000000E+00  0.000000000000E+00  0.000000000000E+00  0.000000000000E+00
  0.000000000000E+00  0.000000000000E+00  0.000000000000E+00  0.000000000000E+00
  0.000000000000E+00
</data>
</radfunc>
</valence-charge>
<pseudocore-charge matching-radius="0.503980289475"
 number-of-continuous-derivatives="4">
<annotation model-charge-form="Teter function with specified parameters" />
<radfunc>
<data npts="290">
  2.775368975400E+02  2.774978702366E+02  2.773812212389E+02  2.771866664465E+02
  2.769162844802E+02  2.765609658217E+02  2.761084539235E+02  2.755907524466E+02
  2.750092437175E+02  2.743319027359E+02  2.735694432533E+02  2.727419277686E+02
  2.717435318873E+02  2.707028013056E+02  2.694777247365E+02  2.682570946200E+02
  2.668550494176E+02  2.655295624436E+02  2.640435326323E+02  2.623785640904E+02
  2.605144343719E+02  2.588649150236E+02  2.570615251515E+02  2.550911491651E+02
  2.529398129325E+02  2.505926847485E+02  2.480340919410E+02  2.459664902003E+02
  2.437634565018E+02  2.414175450927E+02  2.389211207291E+02  2.362663919719E+02
  2.334454523650E+02  2.304503305136E+02  2.272730501431E+02  2.239057012696E+02
  2.203405236447E+02  2.165700036472E+02  2.139386925032E+02  2.112109218600E+02
  2.083847997675E+02  2.054585684380E+02  2.024306258566E+02  1.992995489681E+02
  1.960641184538E+02  1.927233450940E+02  1.892764976898E+02  1.857231324990E+02
  1.820631241056E+02  1.782966976167E+02  1.744244620402E+02  1.704474446574E+02
  1.663671261557E+02  1.621854762391E+02  1.579049893735E+02  1.535287202663E+02
  1.490603186118E+02  1.445040625629E+02  1.398648903205E+02  1.351484291499E+02
  1.303610210627E+02  1.255097443224E+02  1.206024298605E+02  1.156476716207E+02
  1.106548297917E+02  1.056340258380E+02  1.005961282113E+02  9.807436406018E+01
  9.555272761112E+01  9.303277459993E+01  9.051610068223E+01  8.800433959232E+01
  8.549916108202E+01  8.300226863302E+01  8.051539693695E+01  7.804030913817E+01
  7.557879383543E+01  7.313266183906E+01  7.070374268208E+01  6.829388088435E+01
  6.590493197073E+01  6.353875824526E+01  6.119722432546E+01  5.888219244228E+01
  5.659551751325E+01  5.433904199842E+01  5.211459055079E+01  4.992396447506E+01
  4.776893601098E+01  4.565124246009E+01  4.357258017683E+01  4.153459844789E+01
  3.953889328616E+01  3.758700116812E+01  3.568039274634E+01  3.382046657111E+01
  3.200854285808E+01  3.024585734064E+01  2.853355524879E+01  2.687268545750E+01
  2.526419485037E+01  2.370892294513E+01  2.220759682961E+01  2.076082645721E+01
  1.936910035185E+01  1.803278177233E+01  1.675210538561E+01  1.552717449783E+01
  1.435795889005E+01  1.324429330391E+01  1.218587661939E+01  1.118227176335E+01
  1.023290638346E+01  9.337074317098E+00  8.493937879069E+00  7.702530985646E+00
  6.961763125284E+00  6.270424178453E+00  5.627190080725E+00  5.030629314029E+00
  4.479210201606E+00  3.971308972160E+00  3.505218548558E+00  3.079158006000E+00
  2.691282634274E+00  2.339694528487E+00  2.022453622824E+00  1.737589072597E+00
  1.483110881303E+00  1.257021661823E+00  1.057328414500E+00  8.820541998256E-01
  7.292495800459E-01  5.970037023971E-01  4.834548970007E-01  3.868006649265E-01
  3.053069366074E-01  2.373164877775E-01  1.812564094251E-01  1.356445398806E-01
  9.909478101093E-02  7.032123643510E-02  4.814112748714E-02  3.147646207140E-02
  1.935445223084E-02  1.090669778445E-02  5.367175321002E-03  2.069093655206E-03
  4.406980095561E-04  1.251079446003E-07  3.494294742417E-04  1.167916948184E-03
  2.204934221350E-03  3.272272568489E-03  4.236349489593E-03  5.010333367974E-03
  5.546373288634E-03  5.828088784158E-03  5.863462567248E-03  5.678263514330E-03
  5.310107691569E-03  4.803242631512E-03  4.204115092916E-03  3.557756016141E-03
  2.904989272080E-03  2.280444112213E-03  1.711326004236E-03  1.216877802827E-03
  8.084439058614E-04  4.900350047889E-04  2.592809001623E-04  1.086540457825E-04
  2.684717775766E-05  1.944681532988E-07  1.403671823336E-05  5.394649427733E-05
  1.067478765378E-04  1.612864977187E-04  2.089275047323E-04  2.437806321154E-04
  2.626713935174E-04  2.648942585429E-04  2.517965694398E-04  2.262501343399E-04
  1.920705288078E-04  1.534421520153E-04  1.144004232340E-04  7.841194874980E-05
  4.808013581571E-05  2.498890290700E-05  9.682269518294E-06  1.764117967492E-06
  9.155990899853E-08  3.028081603711E-06  8.719565281612E-06  1.535751426765E-05
  2.139899734705E-05  2.572118318862E-05  2.769871564322E-05  2.720322314130E-05
  2.453454476678E-05  2.030150262025E-05  1.527526137689E-05  1.023992981970E-05
  5.863026439066E-06  2.603225596612E-06  6.653523788411E-07  4.151957080634E-09
  0.000000000000E+00  0.000000000000E+00  0.000000000000E+00  0.000000000000E+00
  0.000000000000E+00  0.000000000000E+00  0.000000000000E+00  0.000000000000E+00
  0.000000000000E+00  0.000000000000E+00  0.000000000000E+00  0.000000000000E+00
  0.000000000000E+00  0.000000000000E+00  0.000000000000E+00  0.000000000000E+00
  0.000000000000E+00  0.000000000000E+00  0.000000000000E+00  0.000000000000E+00
  0.000000000000E+00  0.000000000000E+00  0.000000000000E+00  0.000000000000E+00
  0.000000000000E+00  0.000000000000E+00  0.000000000000E+00  0.000000000000E+00
  0.000000000000E+00  0.000000000000E+00  0.000000000000E+00  0.000000000000E+00
  0.000000000000E+00  0.000000000000E+00  0.000000000000E+00  0.000000000000E+00
  0.000000000000E+00  0.000000000000E+00  0.000000000000E+00  0.000000000000E+00
  0.000000000000E+00  0.000000000000E+00  0.000000000000E+00  0.000000000000E+00
  0.000000000000E+00  0.000000000000E+00  0.000000000000E+00  0.000000000000E+00
  0.000000000000E+00  0.000000000000E+00  0.000000000000E+00  0.000000000000E+00
  0.000000000000E+00  0.000000000000E+00  0.000000000000E+00  0.000000000000E+00
  0.000000000000E+00  0.000000000000E+00  0.000000000000E+00  0.000000000000E+00
  0.000000000000E+00  0.000000000000E+00  0.000000000000E+00  0.000000000000E+00
  0.000000000000E+00  0.000000000000E+00  0.000000000000E+00  0.000000000000E+00
  0.000000000000E+00  0.000000000000E+00  0.000000000000E+00  0.000000000000E+00
  0.000000000000E+00  0.000000000000E+00  0.000000000000E+00  0.000000000000E+00
  0.000000000000E+00  0.000000000000E+00  0.000000000000E+00  0.000000000000E+00
  0.000000000000E+00  0.000000000000E+00
</data>
</radfunc>
</pseudocore-charge>
<semilocal-potentials set="scalar_relativistic">
<slps n="4" l="s" rc="1.30874354285" eref="-6.03226120419">
<radfunc>
<data npts="290">
 -2.734502005496E+01 -2.734611678308E+01 -2.734939443061E+01 -2.735485993712E+01
 -2.736245319002E+01 -2.737242747666E+01 -2.738512306997E+01 -2.739963792556E+01
 -2.741592941395E+01 -2.743488924894E+01 -2.745621043578E+01 -2.747932532008E+01
 -2.750717797314E+01 -2.753617034137E+01 -2.757024399282E+01 -2.760413554999E+01
 -2.764299202454E+01 -2.767965554897E+01 -2.772067717356E+01 -2.776653427072E+01
 -2.781774559799E+01 -2.786294507411E+01 -2.791223550194E+01 -2.796593953062E+01
 -2.802439523188E+01 -2.808795452670E+01 -2.815698092802E+01 -2.821256210015E+01
 -2.827158649897E+01 -2.833421316352E+01 -2.840059992319E+01 -2.847090169610E+01
 -2.854526849232E+01 -2.862384308932E+01 -2.870675834499E+01 -2.879413411267E+01
 -2.888607372166E+01 -2.898265998659E+01 -2.904966202737E+01 -2.911876548614E+01
 -2.918997364232E+01 -2.926328234630E+01 -2.933867918829E+01 -2.941614261253E+01
 -2.949564097596E+01 -2.957713155096E+01 -2.966055947192E+01 -2.974585662615E+01
 -2.983294049023E+01 -2.992171291326E+01 -3.001205884972E+01 -3.010384504504E+01
 -3.019691867827E+01 -3.029110596709E+01 -3.038621074187E+01 -3.048201299650E+01
 -3.057826742544E+01 -3.067470195789E+01 -3.077101630174E+01 -3.086688051189E+01
 -3.096193359954E+01 -3.105578220098E+01 -3.114799932701E+01 -3.123812321619E+01
 -3.132565631745E+01 -3.141006443032E+01 -3.149077603287E+01 -3.152955672092E+01
 -3.156718183028E+01 -3.160356926476E+01 -3.163863455845E+01 -3.167229088614E+01
 -3.170444907913E+01 -3.173501764680E+01 -3.176390280427E+01 -3.179100850637E+01
 -3.181623648825E+01 -3.183948631299E+01 -3.186065542641E+01 -3.187963921943E+01
 -3.189633109819E+01 -3.191062256224E+01 -3.192240329104E+01 -3.193156123894E+01
 -3.193798273890E+01 -3.194155261512E+01 -3.194215430471E+01 -3.193966998855E+01
 -3.193398073136E+01 -3.192496663112E+01 -3.191250697784E+01 -3.189648042150E+01
 -3.187676514929E+01 -3.185323907184E+01 -3.182578001829E+01 -3.179426593997E+01
 -3.175857512235E+01 -3.171858640484E+01 -3.167417940796E+01 -3.162523476743E+01
 -3.157163437442E+01 -3.151326162137E+01 -3.145000165259E+01 -3.138174161873E+01
 -3.130837093424E+01 -3.122978153680E+01 -3.114586814778E+01 -3.105652853246E+01
 -3.096166375902E+01 -3.086117845523E+01 -3.075498106153E+01 -3.064298407973E+01
 -3.052510431608E+01 -3.040126311822E+01 -3.027138660506E+01 -3.013540588940E+01
 -2.999325729327E+01 -2.984488255613E+01 -2.969022903701E+01 -2.952924991177E+01
 -2.936190436786E+01 -2.918815779937E+01 -2.900798200635E+01 -2.882135540354E+01
 -2.862826324484E+01 -2.842869787153E+01 -2.822265899367E+01 -2.801015401659E+01
 -2.779119842612E+01 -2.756581624904E+01 -2.733404060807E+01 -2.709591439385E+01
 -2.685149108009E+01 -2.660083571199E+01 -2.634402610232E+01 -2.608115427485E+01
 -2.581232819930E+01 -2.553767386844E+01 -2.525733777294E+01 -2.497148983640E+01
 -2.468032687829E+01 -2.438407667858E+01 -2.408300272251E+01 -2.377740970774E+01
 -2.346764989773E+01 -2.315413040427E+01 -2.283732147706E+01 -2.251776586843E+01
 -2.219608932472E+01 -2.187301223137E+01 -2.154936240507E+01 -2.122608898093E+01