<?xml version="1.0" encoding="UTF-8" ?>
<psml version="1.1" energy_unit="hartree" length_unit="bohr"
 uuid="6eb9b3d0-1d60-11e8-78e3-62dbf7eccb06"
 xmlns="http://esl.cecam.org/PSML/ns/1.1">
<provenance creator="ONCVPSP-3.3.0+psml-3.3.0-73 (scalar-relativistic)"
 date="2018-03-01">
<annotation action="semilocal-pseudopotential-generation"
 action-cont="projectors-generation" />
<input-file name="oncvpsp-input">
<![CDATA[# atsym z nc nv iexc psfile
Te 52 8 3 -116133 upf
# n l f
1 0 2.0
2 0 2.0
2 1 6.0
3 0 2.0
3 1 6.0
3 2 10.0
4 0 2.0
4 1 6.0
4 2 10.0
5 0 2.0
5 1 4.0
# lmax
2
# l rc ep ncon nbas qcut
0 2.25 0.0 4 8 4.2
1 1.9 0.0 4 8 4.8
2 1.8 0.0 4 9 8.4
# lloc lpopt rc5 dvloc0
4 5 1.8 0.0
# l nproj debl
0 2 3.0
1 2 3.5
2 2 1.6
# icmod fcfact
3 5 1.43
# epsh1 epsh2 depsh
-12.0 12.0 0.02
# rlmax drl
6.0 0.01
 0
]]>
</input-file>
</provenance>
<pseudo-atom-spec atomic-label="Te" atomic-number="52" z-pseudo="16"
 flavor="Hamann&apos;s oncvpsp" relativity="scalar" spin-dft="no"
 core-corrections="yes">
<annotation pseudo-energy="-93.2194670572" />
<exchange-correlation>
<annotation oncvpsp-xc-code="-116133" oncvpsp-xc-type="libxc-interface" />
<libxc-info number-of-functionals="2">
<functional name="Perdew, Burke &amp; Ernzerhof SOL (GGA)" type="exchange"
 id="116" />
<functional name="Perdew, Burke &amp; Ernzerhof SOL (GGA)" type="correlation"
 id="133" />
</libxc-info>
</exchange-correlation>
<valence-configuration total-valence-charge="16">
<shell n="4" l="d" occupation="10" />
<shell n="5" l="s" occupation="2" />
<shell n="5" l="p" occupation="4" />
</valence-configuration>
</pseudo-atom-spec>
<grid npts="457">
<annotation type="sampled from oncvpsp log grid"
 recipe="r(i:1..N) = r1*exp(a*(i-1)) + r=0; resampled"
 recipe-cont="r1: scale; a: step" scale="0.961538461538E-05"
 step="0.119285708653E-01" delta="0.500000000000E-02" rmax="44.1677972533" />
<grid-data>
  0.000000000000E+00  5.043542968859E-03  1.007408127726E-02  1.511272833334E-02
  2.012218676581E-02  2.524090447309E-02  3.054872670761E-02  3.567301166182E-02
  4.067479879938E-02  4.582796137488E-02  5.102172656014E-02  5.613054395614E-02
  6.175090843111E-02  6.712849932167E-02  7.297439884964E-02  7.838872507068E-02
  8.420476653556E-02  8.937977120117E-02  9.487281811536E-02  1.007034533227E-01
  1.068924241165E-01  1.121163565855E-01  1.175955875068E-01  1.233425935539E-01
  1.293704611469E-01  1.356929162517E-01  1.423243556345E-01  1.475097624955E-01
  1.528840930596E-01  1.584542305217E-01  1.642273088569E-01  1.702107219580E-01
  1.764121331045E-01  1.828394847779E-01  1.895010088340E-01  1.964052370456E-01
  2.035610120299E-01  2.109774985736E-01  2.160713392991E-01  2.212881657152E-01
  2.266309471882E-01  2.321027247771E-01  2.377066129641E-01  2.434458014276E-01
  2.493235568572E-01  2.553432248140E-01  2.615082316339E-01  2.678220863785E-01
  2.742883828320E-01  2.809108015471E-01  2.876931119396E-01  2.946391744343E-01
  3.017529426618E-01  3.090384657095E-01  3.164998904256E-01  3.241414637800E-01
  3.319675352815E-01  3.399825594533E-01  3.481910983688E-01  3.565978242478E-01
  3.652075221164E-01  3.740250925304E-01  3.830555543645E-01  3.923040476690E-01
  4.017758365960E-01  4.114763123947E-01  4.214109964812E-01  4.264679284390E-01
  4.315855435802E-01  4.367645701032E-01  4.420057449444E-01  4.473098138838E-01
  4.526775316504E-01  4.581096620302E-01  4.636069779745E-01  4.691702617102E-01
  4.748003048508E-01  4.804979085090E-01  4.862638834111E-01  4.920990500120E-01
  4.980042386121E-01  5.039802894755E-01  5.100280529492E-01  5.161483895846E-01
  5.223421702596E-01  5.286102763027E-01  5.349535996183E-01  5.413730428138E-01
  5.478695193275E-01  5.544439535595E-01  5.610972810022E-01  5.678304483742E-01
  5.746444137547E-01  5.815401467198E-01  5.885186284804E-01  5.955808520222E-01
  6.027278222464E-01  6.099605561134E-01  6.172800827867E-01  6.246874437802E-01
  6.321836931055E-01  6.397698974228E-01  6.474471361919E-01  6.552165018262E-01
  6.630790998481E-01  6.710360490463E-01  6.790884816348E-01  6.872375434144E-01
  6.954843939354E-01  7.038302066626E-01  7.122761691426E-01  7.208234831723E-01
  7.294733649704E-01  7.382270453500E-01  7.470857698942E-01  7.560507991330E-01
  7.651234087225E-01  7.743048896272E-01  7.835965483027E-01  7.929997068824E-01
  8.025157033650E-01  8.121458918053E-01  8.218916425070E-01  8.317543422171E-01
  8.417353943237E-01  8.518362190556E-01  8.620582536842E-01  8.724029527285E-01
  8.828717881612E-01  8.934662496191E-01  9.041878446146E-01  9.150380987499E-01
  9.260185559349E-01  9.371307786062E-01  9.483763479494E-01  9.597568641248E-01
  9.712739464943E-01  9.829292338523E-01  9.947243846585E-01  1.006661077274E+00
  1.018741010202E+00  1.030965902324E+00  1.043337493152E+00  1.055857543070E+00
  1.068527833587E+00  1.081350167590E+00  1.094326369601E+00  1.107458286036E+00
  1.120747785468E+00  1.134196758894E+00  1.147807120001E+00  1.161580805441E+00
  1.175519775106E+00  1.189626012407E+00  1.203901524556E+00  1.218348342851E+00
  1.232968522965E+00  1.247764145241E+00  1.262737314984E+00  1.277890162763E+00
  1.293224844717E+00  1.308743542853E+00  1.324448465367E+00  1.340341846952E+00
  1.356425949115E+00  1.372703060505E+00  1.389175497231E+00  1.405845603197E+00
  1.422715750436E+00  1.439788339441E+00  1.457065799514E+00  1.474550589108E+00
  1.492245196178E+00  1.510152138532E+00  1.528273964194E+00  1.546613251765E+00
  1.565172610786E+00  1.583954682115E+00  1.602962138301E+00  1.622197683960E+00
  1.641664056168E+00  1.661364024842E+00  1.681300393140E+00  1.701475997858E+00
  1.721893709832E+00  1.742556434350E+00  1.763467111562E+00  1.784628716901E+00
  1.806044261504E+00  1.827716792642E+00  1.849649394153E+00  1.871845186883E+00
  1.894307329126E+00  1.917039017075E+00  1.940043485280E+00  1.963324007103E+00
  1.986883895189E+00  2.010726501931E+00  2.034855219954E+00  2.059273482594E+00
  2.083984764385E+00  2.108992581557E+00  2.134300492536E+00  2.159912098446E+00
  2.185831043628E+00  2.212061016151E+00  2.238605748345E+00  2.265469017325E+00
  2.292654645533E+00  2.320166501280E+00  2.348008499295E+00  2.376184601287E+00
  2.404698816502E+00  2.433555202300E+00  2.462757864728E+00  2.492310959104E+00
  2.522218690614E+00  2.552485314901E+00  2.583115138680E+00  2.614112520344E+00
  2.645481870588E+00  2.677227653035E+00  2.709354384872E+00  2.741866637490E+00
  2.774769037140E+00  2.808066265586E+00  2.841763060773E+00  2.875864217502E+00
  2.910374588112E+00  2.945299083169E+00  2.980642672167E+00  3.016410384233E+00
  3.052607308844E+00  3.089238596550E+00  3.126309459709E+00  3.163825173225E+00
  3.201791075304E+00  3.240212568208E+00  3.279095119026E+00  3.318444260454E+00
  3.358265591580E+00  3.398564778679E+00  3.439347556023E+00  3.480619726695E+00
  3.522387163416E+00  3.564655809377E+00  3.607431679089E+00  3.650720859238E+00
  3.694529509549E+00  3.738863863664E+00  3.783730230028E+00  3.829134992788E+00
  3.875084612701E+00  3.921585628054E+00  3.968644655590E+00  4.016268391458E+00
  4.064463612155E+00  4.113237175501E+00  4.162596021607E+00  4.212547173866E+00
  4.263097739953E+00  4.314254912832E+00  4.366025971786E+00  4.418418283447E+00
  4.471439302849E+00  4.525096574483E+00  4.579397733377E+00  4.634350506177E+00
  4.689962712251E+00  4.746242264798E+00  4.803197171976E+00  4.860835538040E+00
  4.919165564496E+00  4.978195551270E+00  5.037933897885E+00  5.098389104660E+00
  5.159569773916E+00  5.221484611203E+00  5.284142426537E+00  5.347552135656E+00
  5.411722761284E+00  5.476663434419E+00  5.542383395632E+00  5.608891996380E+00
  5.676198700336E+00  5.744313084740E+00  5.813244841757E+00  5.883003779858E+00
  5.953599825217E+00  6.025043023119E+00  6.097343539397E+00  6.170511661869E+00
  6.244557801812E+00  6.319492495433E+00  6.395326405379E+00  6.472070322243E+00
  6.549735166110E+00  6.628331988103E+00  6.707871971961E+00  6.788366435624E+00
  6.869826832852E+00  6.952264754846E+00  7.035691931904E+00  7.120120235087E+00
  7.205561677908E+00  7.292028418043E+00  7.379532759059E+00  7.468087152168E+00
  7.557704197994E+00  7.648396648370E+00  7.740177408151E+00  7.833059537048E+00
  7.927056251493E+00  8.022180926511E+00  8.118447097629E+00  8.215868462801E+00
  8.314458884354E+00  8.414232390966E+00  8.515203179658E+00  8.617385617814E+00
  8.720794245228E+00  8.825443776170E+00  8.931349101484E+00  9.038525290702E+00
  9.146987594191E+00  9.256751445321E+00  9.367832462665E+00  9.480246452217E+00
  9.594009409643E+00  9.709137522559E+00  9.825647172830E+00  9.943554938904E+00
  1.006287759817E+01  1.018363212935E+01  1.030583571490E+01  1.042950574348E+01
  1.055465981240E+01  1.068131573015E+01  1.080949151891E+01  1.093920541714E+01
  1.107047588214E+01  1.120332159273E+01  1.133776145184E+01  1.147381458927E+01
  1.161150036434E+01  1.175083836871E+01  1.189184842913E+01  1.203455061028E+01
  1.217896521761E+01  1.232511280022E+01  1.247301415382E+01  1.262269032367E+01
  1.277416260755E+01  1.292745255884E+01  1.308258198955E+01  1.323957297342E+01
  1.339844784910E+01  1.355922922329E+01  1.372193997397E+01  1.388660325366E+01
  1.405324249270E+01  1.422188140261E+01  1.439254397945E+01  1.456525450720E+01
  1.474003756129E+01  1.491691801202E+01  1.509592102817E+01  1.527707208050E+01
  1.546039694547E+01  1.564592170882E+01  1.583367276932E+01  1.602367684255E+01
  1.621596096466E+01  1.641055249624E+01  1.660747912619E+01  1.680676887571E+01
  1.700845010222E+01  1.721255150344E+01  1.741910212148E+01  1.762813134694E+01
  1.783966892311E+01  1.805374495018E+01  1.827038988959E+01  1.848963456826E+01
  1.871151018308E+01  1.893604830528E+01  1.916328088494E+01  1.939324025556E+01
  1.962595913863E+01  1.986147064829E+01  2.009980829607E+01  2.034100599562E+01
  2.058509806757E+01  2.083211924438E+01  2.108210467531E+01  2.133508993142E+01
  2.159111101059E+01  2.185020434272E+01  2.211240679483E+01  2.237775567637E+01
  2.264628874449E+01  2.291804420942E+01  2.319306073993E+01  2.347137746881E+01
  2.375303399844E+01  2.403807040642E+01  2.432652725130E+01  2.461844557831E+01
  2.491386692525E+01  2.521283332836E+01  2.551538732830E+01  2.582157197624E+01
  2.613143083995E+01  2.644500801003E+01  2.676234810615E+01  2.708349628342E+01
  2.740849823883E+01  2.773740021769E+01  2.807024902030E+01  2.840709200855E+01
  2.874797711265E+01  2.909295283800E+01  2.944206827206E+01  2.979537309132E+01
  3.015291756842E+01  3.051475257924E+01  3.088092961019E+01  3.125150076551E+01
  3.162651877470E+01  3.200603700000E+01  3.239010944400E+01  3.277879075732E+01
  3.317213624641E+01  3.357020188137E+01  3.397304430394E+01  3.438072083559E+01
  3.479328948562E+01  3.521080895945E+01  3.563333866696E+01  3.606093873096E+01
  3.649366999573E+01  3.693159403568E+01  3.737477316411E+01  3.782327044208E+01
  3.827714968739E+01  3.873647548363E+01  3.920131318944E+01  3.967172894771E+01
  4.014778969508E+01  4.062956317142E+01  4.111711792948E+01  4.161052334464E+01
  4.210984962477E+01  4.261516782027E+01  4.312654983411E+01  4.364406843212E+01
  4.416779725331E+01
</grid-data>
</grid>
<valence-charge total-charge="16" is-unscreening-charge="yes"
 rescaled-to-z-pseudo="no">
<radfunc>
<data npts="457">
  1.166922328330E-03  1.170424307997E-03  1.184724397915E-03  1.221359626910E-03
  1.298832451353E-03  1.447649801371E-03  1.714545952705E-03  2.126337633729E-03
  2.724547729961E-03  3.602623656740E-03  4.824892964111E-03  6.432339652950E-03
  8.761876868413E-03  1.164564854061E-02  1.563785296140E-02  2.026049514918E-02
  2.636755701452E-02  3.292817892745E-02  4.119674674789E-02  5.161293509628E-02
  6.472686891166E-02  7.761671680669E-02  9.309768401932E-02  1.116795779442E-01
  1.339685507362E-01  1.606839761869E-01  1.926778386925E-01  2.207363070972E-01
  2.528163038347E-01  2.894710151618E-01  3.313241161048E-01  3.790774132820E-01
  4.335189876200E-01  4.955317797335E-01  5.661025281108E-01  6.463309292899E-01
  7.374388385030E-01  8.407792673113E-01  9.171998566732E-01  1.000195820476E+00
  1.090275441449E+00  1.187977641455E+00  1.293872469933E+00  1.408561344474E+00
  1.532676991020E+00  1.666883024760E+00  1.811873105932E+00  1.968369597640E+00
  2.137121645513E+00  2.318902591597E+00  2.514506627662E+00  2.724744586095E+00
  2.950438760199E+00  3.192416640250E+00  3.451503447488E+00  3.728513345818E+00
  4.024239210933E+00  4.339440839399E+00  4.674831486798E+00  5.031062635028E+00
  5.408706905199E+00  5.808239055320E+00  6.230015032046E+00  6.674249084265E+00
  7.140988994417E+00  7.630089542032E+00  8.141184384129E+00  8.404797497774E+00
  8.673656619543E+00  8.947640499793E+00  9.226608399408E+00  9.510399122229E+00
  9.798830054134E+00  1.009169621467E+01  1.038876932773E+01  1.068979691818E+01
  1.099450144227E+01  1.130257945977E+01  1.161370085677E+01  1.192750812857E+01
  1.224361573241E+01  1.256160952081E+01  1.288104626639E+01  1.320145328990E+01
  1.352232820330E+01  1.384313878052E+01  1.416332296867E+01  1.448228905255E+01
  1.479941598605E+01  1.511405390341E+01  1.542552482390E+01  1.573312356275E+01
  1.603611886132E+01  1.633375474857E+01  1.662525214560E+01  1.690981072371E+01
  1.718661102585E+01  1.745481685947E+01  1.771357796766E+01  1.796203298327E+01
  1.819931266889E+01  1.842454344297E+01  1.863685118991E+01  1.883536534878E+01
  1.901922327229E+01  1.918757484415E+01  1.933958733904E+01  1.947445050565E+01
  1.959138184886E+01  1.968963208299E+01  1.976849072334E+01  1.982729177880E+01
  1.986541950371E+01  1.988231416255E+01  1.987747775660E+01  1.985047965770E+01
  1.980096208998E+01  1.972864539737E+01  1.963333303131E+01  1.951491619094E+01
  1.937337804652E+01  1.920879747576E+01  1.902135224318E+01  1.881132155386E+01
  1.857908791525E+01  1.832513824443E+01  1.805006416336E+01  1.775456143070E+01
  1.743942846680E+01  1.710556393742E+01  1.675396337220E+01  1.638571480557E+01
  1.600199344073E+01  1.560405535094E+01  1.519323024719E+01  1.477091335635E+01
  1.433855646931E+01  1.389765823414E+01  1.344975378434E+01  1.299640380635E+01
  1.253918316415E+01  1.207966921010E+01  1.161942992143E+01  1.116001200936E+01
  1.070292915333E+01  1.024965051491E+01  9.801589686214E+00  9.360094223388E+00
  8.926435909690E+00  8.501801882549E+00  8.087286746434E+00  7.683885777803E+00
  7.292489310460E+00  6.913878369652E+00  6.548721601607E+00  6.197573522579E+00
  5.860874088246E+00  5.538949561277E+00  5.232014632425E+00  4.940175729439E+00
  4.663435428685E+00  4.401697867402E+00  4.154775040105E+00  3.922393851407E+00
  3.704203789430E+00  3.499785079348E+00  3.308657175365E+00  3.130287451520E+00
  2.964099957005E+00  2.809484109789E+00  2.665803213007E+00  2.532402691244E+00
  2.408617957956E+00  2.293781840269E+00  2.187231502520E+00  2.088314824437E+00
  1.996396203092E+00  1.910861759034E+00  1.831123935696E+00  1.756625486995E+00
  1.686842850757E+00  1.621288905594E+00  1.559515106600E+00  1.501112991811E+00
  1.445715048219E+00  1.392994924742E+00  1.342666981784E+00  1.294485174260E+00
  1.248241278231E+00  1.203761401947E+00  1.160897938072E+00  1.119520510525E+00
  1.079514821803E+00  1.040783949489E+00  1.003246983347E+00  9.668362254021E-01
  9.314929676486E-01  8.971660353639E-01  8.638115564686E-01  8.313917939173E-01
  7.998743283193E-01  7.692312084572E-01  7.394381436462E-01  7.104737472457E-01
  6.823188446308E-01  6.549558576198E-01  6.283682754684E-01  6.025402202557E-01
  5.774562224653E-01  5.531015397057E-01  5.294627531735E-01  5.065276812483E-01
  4.842850199026E-01  4.627242211013E-01  4.418353100891E-01  4.216087334221E-01
  4.020352233061E-01  3.831056785540E-01  3.648110612975E-01  3.471423085512E-01
  3.300902576216E-01  3.136455845610E-01  2.977987545676E-01  2.825399834549E-01
  2.678592092363E-01  2.537460729027E-01  2.401899074896E-01  2.271797345613E-01
  2.147042672669E-01  2.027519191603E-01  1.913108180128E-01  1.803688238897E-01
  1.699135508013E-01  1.599323912858E-01  1.504125433250E-01  1.413410390398E-01
  1.327047746567E-01  1.244905412833E-01  1.166850560767E-01  1.092749934271E-01
  1.022470158329E-01  9.558780417400E-02  8.928408713346E-02  8.332266956037E-02
  7.769045960064E-02  7.237449445629E-02  6.736196466724E-02  6.264023683926E-02
  5.819687476832E-02  5.401965893644E-02  5.009660437432E-02  4.641597690439E-02
  4.296630779177E-02  3.973640684186E-02  3.671537399096E-02  3.389260944089E-02
  3.125782239090E-02  2.880103841960E-02  2.651260556801E-02  2.438319917184E-02
  2.240382548722E-02  2.056582415132E-02  1.886086951560E-02  1.728097088826E-02
  1.581847172115E-02  1.446604777732E-02  1.321670431746E-02  1.206377234622E-02
  1.100090396404E-02  1.002206687470E-02  9.121538103826E-03  8.293896988939E-03
  7.534017506381E-03  6.837060004442E-03  6.198462415512E-03  5.613931022291E-03
  5.079430854275E-03  4.591175790777E-03  4.145618445683E-03  3.739439906960E-03
  3.369539400878E-03  3.033023946977E-03  2.727198065233E-03  2.449553591747E-03
  2.197759653798E-03  1.969652849356E-03  1.763227670337E-03  1.576627203034E-03
  1.408134133472E-03  1.256162079948E-03  1.119247269780E-03  9.960405724337E-04
  8.852998967050E-04  7.858829555647E-04  6.967403986496E-04  6.169093092065E-04
  5.455070595728E-04  4.817255169930E-04  4.248255897165E-04  3.741321018622E-04
  3.290289844514E-04  2.889547692552E-04  2.533983716482E-04  2.218951484581E-04
  1.940232168122E-04  1.694000201717E-04  1.476791280658E-04  1.285472564646E-04
  1.117214962230E-04  9.694673757173E-05  8.399327918832E-05  7.265461094949E-05
  6.274536002066E-05  5.409939047498E-05  4.656804714486E-05  4.001853489032E-05
  3.433242491962E-05  2.940428021861E-05  2.514039253799E-05  2.145762375502E-05
  1.828234477087E-05  1.554946542990E-05  1.320154925581E-05  1.118800709517E-05
  9.464364042479E-06  7.991594296352E-06  6.735518863743E-06  5.666261290777E-06
  4.757756854482E-06  3.987310900789E-06  3.335202260204E-06  2.784327913677E-06
  2.319885317095E-06  1.929089023008E-06  1.600918462250E-06  1.325893965439E-06
  1.095878314370E-06  9.039013156040E-07  7.440050825339E-07  6.111078975171E-07
  5.008847019914E-07  4.096624295276E-07  3.343285544173E-07  2.722513765489E-07
  2.212107020029E-07  1.793377081016E-07  1.450629017278E-07  1.170711908221E-07
  9.426319135367E-08  7.572198606408E-08  6.068463728420E-08  4.851783450331E-08
  3.869712855733E-08  3.078926872429E-08  2.443721711123E-08  1.934746692749E-08
  1.527933799963E-08  1.203596462108E-08  9.456727958934E-09  7.410918159211E-09
  5.792440382800E-09  4.515404625800E-09  3.510461671597E-09  2.721767204235E-09
  2.104473279252E-09  1.622661272129E-09  1.247643356745E-09  9.565707363994E-10
  7.312964669579E-10  5.574489646218E-10  4.236793503741E-10  3.210518021778E-10
  2.425512012641E-10  1.826866918265E-10  1.371734317749E-10  1.026778907823E-10
  7.661463400436E-11  5.698468843405E-11  4.224738732366E-11  3.121908151512E-11
  2.299334242133E-11  1.687830071784E-11  1.234760261142E-11  9.002151794990E-12
  6.540365339434E-12  4.735127381819E-12  3.415993742675E-12  2.455498835446E-12
  1.758656219554E-12  1.254936567735E-12  8.921605316437E-13  6.318663287893E-13
  4.458088783841E-13  3.133239399984E-13  2.193510070833E-13  1.529559741762E-13
  1.062315040290E-13  7.348172615174E-14  5.062013545502E-14  3.472671705629E-14
  2.372350757195E-14  1.613789283457E-14  1.093063129905E-14  7.371427879554E-15
  4.949292758640E-15  3.308237850699E-15  2.201349499493E-15  1.458130215749E-15
  9.613791898699E-16  6.308992208217E-16  4.120667830519E-16  2.678506727789E-16
  1.732647751035E-16  1.115307933140E-16  7.143656204143E-17  4.552621009066E-17
  2.886631130026E-17  1.820888049016E-17  1.142642465976E-17  7.132557877512E-18
  4.428538356589E-18  2.734813202225E-18  1.679649673620E-18  1.025899455594E-18
  6.230986393178E-19  3.763094745968E-19  2.259642765332E-19  1.348994055664E-19
  8.006163573339E-20  4.723355000787E-20  2.769837765509E-20  0.000000000000E+00
  0.000000000000E+00  0.000000000000E+00  0.000000000000E+00  0.000000000000E+00
  0.000000000000E+00  0.000000000000E+00  0.000000000000E+00  0.000000000000E+00
  0.000000000000E+00  0.000000000000E+00  0.000000000000E+00  0.000000000000E+00
  0.000000000000E+00  0.000000000000E+00  0.000000000000E+00  0.000000000000E+00
  0.000000000000E+00  0.000000000000E+00  0.000000000000E+00  0.000000000000E+00
  0.000000000000E+00  0.000000000000E+00  0.000000000000E+00  0.000000000000E+00
  0.000000000000E+00
</data>
</radfunc>
</valence-charge>
<pseudocore-charge matching-radius="0.812145891805"
 number-of-continuous-derivatives="4">
<annotation model-charge-form="Teter function with specified parameters" />
<radfunc>
<data npts="290">
  9.726855484791E+01  9.726275914383E+01  9.724543369804E+01  9.721652844128E+01
  9.717633925537E+01  9.712349298638E+01  9.705613816467E+01  9.697900698906E+01
  9.689227600072E+01  9.679112690753E+01  9.667710543149E+01  9.655316090676E+01
  9.640335154161E+01  9.624687319561E+01  9.606226085252E+01  9.587786731107E+01
  9.566550846600E+01  9.546419060824E+01  9.523784271153E+01  9.498342046858E+01
  9.469752750592E+01  9.444362521733E+01  9.416503601073E+01  9.385944051171E+01
  9.352431842157E+01  9.315693473550E+01  9.275432583269E+01  9.242733346451E+01
  9.207728235454E+01  9.170264208193E+01  9.130179535283E+01  9.087303540549E+01
  9.041456375628E+01  8.992448838078E+01  8.940082243814E+01  8.884148366345E+01
  8.824429457011E+01  8.760698362402E+01  8.715865637648E+01  8.669072651869E+01
  8.620245513065E+01  8.569308733643E+01  8.516185328141E+01  8.460796929572E+01
  8.403063926151E+01  8.342905620272E+01  8.280240411721E+01  8.214986007177E+01
  8.147059658172E+01  8.076378429746E+01  8.002859502105E+01  7.926420507645E+01
  7.846979905754E+01  7.764457397795E+01  7.678774384675E+01  7.589854469350E+01
  7.497624006533E+01  7.402012701726E+01  7.302954261521E+01  7.200387096845E+01
  7.094255080521E+01  6.984508360078E+01  6.871104226285E+01  6.754008037241E+01
  6.633194197155E+01  6.508647188124E+01  6.380362652190E+01  6.314820778173E+01
  6.248348519886E+01  6.180948980683E+01  6.112626180154E+01  6.043385092473E+01
  5.973231685089E+01  5.902172957687E+01  5.830216981325E+01  5.757372937652E+01
  5.683651158097E+01  5.609063162924E+01  5.533621700020E+01  5.457340783282E+01
  5.380235730482E+01  5.302323200421E+01  5.223621229246E+01  5.144149265739E+01
  5.063928205388E+01  4.982980423072E+01  4.901329804129E+01  4.819001773608E+01
  4.736023323474E+01  4.652423037539E+01  4.568231113854E+01  4.483479384332E+01
  4.398201331315E+01  4.312432100829E+01  4.226208512228E+01  4.139569063952E+01
  4.052553935096E+01  3.965204982490E+01  3.877565732979E+01  3.789681370606E+01
  3.701598718371E+01  3.613366214271E+01  3.525033881301E+01  3.436653291119E+01
  3.348277521071E+01  3.259961104287E+01  3.171759972584E+01  3.083731391884E+01
  2.995933889933E+01  2.908427176069E+01  2.821272052854E+01  2.734530319391E+01
  2.648264666182E+01  2.562538561428E+01  2.477416128691E+01  2.392962015913E+01
  2.309241255809E+01  2.226319117707E+01  2.144260950987E+01  2.063132020308E+01
  1.982997332882E+01  1.903921458146E+01  1.825968340229E+01  1.749201103707E+01
  1.673681853213E+01  1.599471467564E+01  1.526629389138E+01  1.455213409343E+01
  1.385279451097E+01  1.316881349329E+01  1.250070630624E+01  1.184896293187E+01
  1.121404588433E+01  1.059638805555E+01  9.996390605313E+00  9.414420910902E+00
  8.850810592228E+00  8.305853628889E+00  7.779804586110E+00  7.272876966821E+00
  6.785241707337E+00  6.317025834163E+00  5.868311299279E+00  5.439134010988E+00
  5.029483076833E+00  4.639300274362E+00  4.268479764551E+00  3.916868061437E+00
  3.584264270068E+00  3.270420603111E+00  2.975043184498E+00  2.697793146197E+00
  2.438288021750E+00  2.196103437362E+00  1.970775098547E+00  1.761801066947E+00
  1.568644318773E+00  1.390735572732E+00  1.227476371773E+00  1.078242399337E+00
  9.423870071525E-01  8.192449280716E-01  7.081361439689E-01  6.083698754852E-01
  5.192486573975E-01  4.400724607458E-01  3.701428206060E-01  3.087669266465E-01
  2.552616324157E-01  2.089573387412E-01  1.692017067523E-01  1.353631568965E-01
  1.068341119756E-01  8.303394467360E-02  6.341159332551E-02  4.744781375255E-02
  3.465703985231E-02  2.458883122140E-02  1.682889233675E-02  1.099965462910E-02
  6.760420031962E-03  3.807072137413E-03  1.871368777367E-03  7.198374944098E-04
  1.523027794618E-04  8.093237914558E-08  1.238847428563E-04  4.114856921486E-04
  7.751858516422E-04  1.149154930915E-03  1.486689860582E-03  1.757454772740E-03
  1.944758194203E-03  2.042921672405E-03  2.054789940986E-03  1.989427187732E-03
  1.860037155143E-03  1.682136882902E-03  1.472005143904E-03  1.245417328454E-03
  1.016669028294E-03  7.978812200182E-04  5.985711119466E-04  4.254647572792E-04
  2.825207812652E-04  1.711293088035E-04  9.044663751126E-05  3.782452865312E-05
  9.293243464918E-06  5.959620837679E-08  4.985187406959E-06  1.901538246263E-05
  3.753618470313E-05  5.664351744335E-05  7.331712567734E-05  8.549885984732E-05
  9.208204443921E-05  9.282453552034E-05  8.820257805958E-05  7.922543036740E-05
  6.723179615918E-05  5.368839781574E-05  4.000868031964E-05  2.740592831421E-05
  1.679039387829E-05  8.714834352423E-06  3.367650989228E-06  6.080956684682E-07
  3.421401646732E-08  1.071658222340E-06  3.070434249883E-06  5.397088786335E-06
  7.511667584147E-06  9.021711082508E-06  9.709194138761E-06  9.530186614636E-06
  8.590614452679E-06  7.104385378256E-06  5.341962139622E-06  3.578023486642E-06
  2.046132853520E-06  9.065040829337E-07  2.303393836272E-07  1.255246959687E-09
  0.000000000000E+00  0.000000000000E+00  0.000000000000E+00  0.000000000000E+00
  0.000000000000E+00  0.000000000000E+00  0.000000000000E+00  0.000000000000E+00
  0.000000000000E+00  0.000000000000E+00  0.000000000000E+00  0.000000000000E+00
  0.000000000000E+00  0.000000000000E+00  0.000000000000E+00  0.000000000000E+00
  0.000000000000E+00  0.000000000000E+00  0.000000000000E+00  0.000000000000E+00
  0.000000000000E+00  0.000000000000E+00  0.000000000000E+00  0.000000000000E+00
  0.000000000000E+00  0.000000000000E+00  0.000000000000E+00  0.000000000000E+00
  0.000000000000E+00  0.000000000000E+00  0.000000000000E+00  0.000000000000E+00
  0.000000000000E+00  0.000000000000E+00  0.000000000000E+00  0.000000000000E+00
  0.000000000000E+00  0.000000000000E+00  0.000000000000E+00  0.000000000000E+00
  0.000000000000E+00  0.000000000000E+00  0.000000000000E+00  0.000000000000E+00
  0.000000000000E+00  0.000000000000E+00
</data>
</radfunc>
</pseudocore-charge>
<semilocal-potentials set="scalar_relativistic">
<slps n="5" l="s" rc="2.26546901733" eref="-0.556830618019">
<radfunc>
<data npts="290">
  6.221636962333E+01  6.216759200867E+01  6.202213007066E+01  6.178061620842E+01
  6.144723140322E+01  6.101306492488E+01  6.046652534747E+01  5.984986118086E+01
  5.916790906563E+01  5.838750998712E+01  5.752648191247E+01  5.661223824389E+01
  5.553627716567E+01  5.444499866754E+01  5.319835676893E+01  5.199519548941E+01
  5.065884830762E+01  4.943811995500E+01  4.811626999298E+01  4.669076847691E+01
  4.516025327769E+01  4.386019357037E+01  4.249363969588E+01  4.106202965080E+01
  3.956755397952E+01  3.801318776359E+01  3.640270528916E+01  3.516073598712E+01
  3.389196743060E+01  3.259884384769E+01  3.128402605766E+01  2.995037210339E+01
  2.860091407607E+01  2.723883147777E+01  2.586742158571E+01  2.449006738855E+01
  2.311020375415E+01  2.173128255622E+01  2.081422280328E+01  1.990011486970E+01
  1.898994963510E+01  1.808469881149E+01  1.718531085895E+01  1.629270713701E+01
  1.540777832607E+01  1.453138114975E+01  1.366433542426E+01  1.280742145657E+01
  1.196137780825E+01  1.112689943695E+01  1.030463622279E+01  9.495191882006E+00
  8.699123265949E+00  7.916940038892E+00  7.149104724589E+00  6.396033107698E+00
  5.658094973174E+00  4.935615164008E+00  4.228874935458E+00  3.538113582065E+00
  2.863530312382E+00  2.205286345301E+00  1.563507201182E+00  9.382851606469E-01
  3.296818636936E-01 -2.622689781280E-01 -8.375587836452E-01 -1.118959285448E+00
 -1.396201245068E+00 -1.669289380180E+00 -1.938229438910E+00 -2.203028109682E+00
 -2.463692931613E+00 -2.720232205666E+00 -2.972654906784E+00 -3.220970597223E+00
 -3.465189341295E+00 -3.705321621767E+00 -3.941378258135E+00 -4.173370327021E+00
 -4.401309084926E+00 -4.625205893617E+00 -4.845072148395E+00 -5.060919209517E+00
 -5.272758337079E+00 -5.480600629641E+00 -5.684456966912E+00 -5.884337956833E+00
 -6.080253887380E+00 -6.272214683473E+00 -6.460229869332E+00 -6.644308536693E+00
 -6.824459319273E+00 -7.000690373881E+00 -7.173009368620E+00 -7.341423478570E+00
 -7.505939389389E+00 -7.666563309231E+00 -7.823300989365E+00 -7.976157753876E+00
 -8.125138538751E+00 -8.270247940639E+00 -8.411490275488E+00 -8.548869647199E+00
 -8.682390026331E+00 -8.812055338798E+00 -8.937869564369E+00 -9.059836844655E+00
 -9.177961600125E+00 -9.292248655544E+00 -9.402703373064E+00 -9.509331792058E+00
 -9.612140774638E+00 -9.711138155655E+00 -9.806332895859E+00 -9.897735236819E+00
 -9.985356856090E+00 -1.006921102111E+01 -1.014931274025E+01 -1.022567890958E+01
 -1.029832845367E+01 -1.036728245929E+01 -1.043256430047E+01 -1.049419975384E+01
 -1.055221710318E+01 -1.060664723217E+01 -1.065752370442E+01 -1.070488283021E+01
 -1.074876371889E+01 -1.078920831637E+01 -1.082626142679E+01 -1.085997071743E+01
 -1.089038670572E+01 -1.091756272693E+01 -1.094155488089E+01 -1.096242195562E+01
 -1.098022532558E+01 -1.099502882142E+01 -1.100689856829E+01 -1.101590278883E+01
 -1.102211156705E+01 -1.102559656922E+01 -1.102643071773E+01 -1.102468781479E+01
 -1.102044211373E+01 -1.101376783721E+01 -1.100473864464E+01 -1.099342705436E+01
 -1.097990383106E+01 -1.096423735484E+01 -1.094649299483E+01 -1.092673251781E+01
 -1.090501356841E+01 -1.088138926246E+01 -1.085590793520E+01 -1.082861308063E+01