<?xml version="1.0" encoding="UTF-8" ?>
<psml version="1.1" energy_unit="hartree" length_unit="bohr"
 uuid="507429e0-1d66-11e8-7924-ea455bdf6941"
 xmlns="http://esl.cecam.org/PSML/ns/1.1">
<provenance creator="ONCVPSP-3.3.0+psml-3.3.0-73 (scalar-relativistic)"
 date="2018-03-01">
<annotation action="semilocal-pseudopotential-generation"
 action-cont="projectors-generation" />
<input-file name="oncvpsp-input">
<![CDATA[# atsym z nc nv iexc psfile
Pt 78 10 4 -116133 upf
# n l f
1 0 2.0
2 0 2.0
2 1 6.0
3 0 2.0
3 1 6.0
3 2 10.0
4 0 2.0
4 1 6.0
4 2 10.0
4 3 14.0
5 0 2.0
5 1 6.0
5 2 9.0
6 0 1.0
# lmax
3
# l rc ep ncon nbas qcut
0 1.45 0.0 4 7 8.8
1 1.45 0.0 4 7 9.0
2 1.45 0.0 4 7 8.8
3 1.9 0.1 4 8 6.8
# lloc lpopt rc5 dvloc0
4 3 1.3 0.0
# l nproj debl
0 2 1.0
1 2 2.5
2 2 1.0
3 2 3.0
# icmod fcfact rcfact
3 5.0 1.37
# epsh1 epsh2 depsh
-14.0 12.0 0.02
# rlmax drl
5.0 0.01
 0
]]>
</input-file>
</provenance>
<pseudo-atom-spec atomic-label="Pt" atomic-number="78" z-pseudo="18"
 flavor="Hamann&apos;s oncvpsp" relativity="scalar" spin-dft="no"
 core-corrections="yes">
<annotation pseudo-energy="-120.989840055" />
<exchange-correlation>
<annotation oncvpsp-xc-code="-116133" oncvpsp-xc-type="libxc-interface" />
<libxc-info number-of-functionals="2">
<functional name="Perdew, Burke &amp; Ernzerhof SOL (GGA)" type="exchange"
 id="116" />
<functional name="Perdew, Burke &amp; Ernzerhof SOL (GGA)" type="correlation"
 id="133" />
</libxc-info>
</exchange-correlation>
<valence-configuration total-valence-charge="18">
<shell n="5" l="s" occupation="2" />
<shell n="5" l="p" occupation="6" />
<shell n="5" l="d" occupation="9" />
<shell n="6" l="s" occupation="1" />
</valence-configuration>
</pseudo-atom-spec>
<grid npts="457">
<annotation type="sampled from oncvpsp log grid"
 recipe="r(i:1..N) = r1*exp(a*(i-1)) + r=0; resampled"
 recipe-cont="r1: scale; a: step" scale="0.641025641026E-05"
 step="0.119285708653E-01" delta="0.500000000000E-02" rmax="44.1724925976" />
<grid-data>
  0.000000000000E+00  5.044079132587E-03  1.007515222223E-02  1.511433492157E-02
  2.012432589434E-02  2.524358775694E-02  3.055197424992E-02  3.567680395129E-02
  4.067912281364E-02  4.583283320620E-02  5.102715052485E-02  5.613651102371E-02
  6.175747298255E-02  6.713563554845E-02  7.298215653624E-02  7.839705833785E-02
  8.421371808842E-02  8.938927289305E-02  9.488290375636E-02  1.007141588008E-01
  1.069037875253E-01  1.121282753347E-01  1.176080887363E-01  1.233557057302E-01
  1.293842141275E-01  1.357073413533E-01  1.423394857043E-01  1.475254438101E-01
  1.529003457030E-01  1.584710753094E-01  1.642447673631E-01  1.702288165427E-01
  1.764308869423E-01  1.828589218880E-01  1.895211541104E-01  1.964261162895E-01
  2.035826519825E-01  2.109999269504E-01  2.160943091867E-01  2.213116901877E-01
  2.266550396356E-01  2.321273989125E-01  2.377318828319E-01  2.434716814109E-01
  2.493500616869E-01  2.553703695763E-01  2.615360317794E-01  2.678505577306E-01
  2.743175415965E-01  2.809406643208E-01  2.877236957202E-01  2.946704966296E-01
  3.017850211002E-01  3.090713186497E-01  3.165335365672E-01  3.241759222740E-01
  3.320028257414E-01  3.400187019661E-01  3.482281135064E-01  3.566357330789E-01
  3.652463462184E-01  3.740648540015E-01  3.830962758365E-01  3.923457523203E-01
  4.018185481643E-01  4.115200551912E-01  4.214557954037E-01  4.265132649485E-01
  4.316314241279E-01  4.368110012175E-01  4.420527332321E-01  4.473573660308E-01
  4.527256544232E-01  4.581583622763E-01  4.636562626236E-01  4.692201377751E-01
  4.748507794284E-01  4.805489887815E-01  4.863155766469E-01  4.921513635667E-01
  4.980571799295E-01  5.040338660886E-01  5.100822724817E-01  5.162032597515E-01
  5.223976988685E-01  5.286664712549E-01  5.350104689100E-01  5.414305945369E-01
  5.479277616713E-01  5.545028948114E-01  5.611569295491E-01  5.678908127037E-01
  5.747055024562E-01  5.816019684856E-01  5.885811921075E-01  5.956441664128E-01
  6.027918964097E-01  6.100253991666E-01  6.173457039566E-01  6.247538524041E-01
  6.322508986330E-01  6.398379094166E-01  6.475159643295E-01  6.552861559015E-01
  6.631495897723E-01  6.711073848496E-01  6.791606734678E-01  6.873106015494E-01
  6.955583287680E-01  7.039050287132E-01  7.123518890578E-01  7.209001117265E-01
  7.295509130672E-01  7.383055240240E-01  7.471651903123E-01  7.561311725960E-01
  7.652047466672E-01  7.743872036272E-01  7.836798500707E-01  7.930840082715E-01
  8.026010163708E-01  8.122322285673E-01  8.219790153101E-01  8.318427634938E-01
  8.418248766557E-01  8.519267751756E-01  8.621498964777E-01  8.724956952354E-01
  8.829656435782E-01  8.935612313012E-01  9.042839660768E-01  9.151353736697E-01
  9.261169981538E-01  9.372304021316E-01  9.484771669572E-01  9.598588929607E-01
  9.713771996762E-01  9.830337260723E-01  9.948301307852E-01  1.006768092355E+00
  1.018849309463E+00  1.031075501176E+00  1.043448407191E+00  1.055969788077E+00
  1.068641425534E+00  1.081465122640E+00  1.094442704112E+00  1.107576016561E+00
  1.120866928760E+00  1.134317331905E+00  1.147929139888E+00  1.161704289567E+00
  1.175644741041E+00  1.189752477934E+00  1.204029507669E+00  1.218477861761E+00
  1.233099596102E+00  1.247896791255E+00  1.262871552750E+00  1.278026011383E+00
  1.293362323520E+00  1.308882671402E+00  1.324589263459E+00  1.340484334621E+00
  1.356570146636E+00  1.372848988396E+00  1.389323176256E+00  1.405995054372E+00
  1.422866995024E+00  1.439941398964E+00  1.457220695752E+00  1.474707344101E+00
  1.492403832230E+00  1.510312678217E+00  1.528436430355E+00  1.546777667520E+00
  1.565338999530E+00  1.584123067524E+00  1.603132544335E+00  1.622370134867E+00
  1.641838576485E+00  1.661540639403E+00  1.681479127076E+00  1.701656876601E+00
  1.722076759120E+00  1.742741680229E+00  1.763654580392E+00  1.784818435357E+00
  1.806236256581E+00  1.827911091660E+00  1.849846024760E+00  1.872044177057E+00
  1.894508707182E+00  1.917242811668E+00  1.940249725408E+00  1.963532722113E+00
  1.987095114778E+00  2.010940256155E+00  2.035071539229E+00  2.059492397700E+00
  2.084206306473E+00  2.109216782150E+00  2.134527383536E+00  2.160141712138E+00
  2.186063412684E+00  2.212296173636E+00  2.238843727720E+00  2.265709852453E+00
  2.292898370682E+00  2.320413151130E+00  2.348258108944E+00  2.376437206251E+00
  2.404954452726E+00  2.433813906159E+00  2.463019673033E+00  2.492575909109E+00
  2.522486820018E+00  2.552756661859E+00  2.583389741801E+00  2.614390418703E+00
  2.645763103727E+00  2.677512260972E+00  2.709642408103E+00  2.742158117001E+00
  2.775064014405E+00  2.808364782577E+00  2.842065159968E+00  2.876169941888E+00
  2.910683981191E+00  2.945612188965E+00  2.980959535233E+00  3.016731049655E+00
  3.052931822251E+00  3.089567004118E+00  3.126641808168E+00  3.164161509866E+00
  3.202131447984E+00  3.240557025360E+00  3.279443709664E+00  3.318797034180E+00
  3.358622598590E+00  3.398926069773E+00  3.439713182611E+00  3.480989740802E+00
  3.522761617692E+00  3.565034757104E+00  3.607815174189E+00  3.651108956279E+00
  3.694922263755E+00  3.739261330920E+00  3.784132466891E+00  3.829542056494E+00
  3.875496561171E+00  3.922002519905E+00  3.969066550144E+00  4.016695348746E+00
  4.064895692931E+00  4.113674441246E+00  4.163038534541E+00  4.212994996956E+00
  4.263550936919E+00  4.314713548162E+00  4.366490110740E+00  4.418887992069E+00
  4.471914647974E+00  4.525577623750E+00  4.579884555234E+00  4.634843169897E+00
  4.690461287936E+00  4.746746823391E+00  4.803707785272E+00  4.861352278695E+00
  4.919688506040E+00  4.978724768112E+00  5.038469465329E+00  5.098931098913E+00
  5.160118272100E+00  5.222039691366E+00  5.284704167662E+00  5.348120617674E+00
  5.412298065086E+00  5.477245641867E+00  5.542972589569E+00  5.609488260644E+00
  5.676802119772E+00  5.744923745209E+00  5.813862830152E+00  5.883629184114E+00
  5.954232734323E+00  6.025683527135E+00  6.097991729460E+00  6.171167630214E+00
  6.245221641777E+00  6.320164301478E+00  6.396006273096E+00  6.472758348373E+00
  6.550431448553E+00  6.629036625936E+00  6.708585065447E+00  6.789088086232E+00
  6.870557143267E+00  6.953003828986E+00  7.036439874934E+00  7.120877153433E+00
  7.206327679275E+00  7.292803611426E+00  7.380317254763E+00  7.468881061820E+00
  7.558507634562E+00  7.649209726177E+00  7.741000242891E+00  7.833892245806E+00
  7.927898952755E+00  8.023033740188E+00  8.119310145071E+00  8.216741866811E+00
  8.315342769213E+00  8.415126882444E+00  8.516108405033E+00  8.618301705893E+00
  8.721721326364E+00  8.826381982281E+00  8.932298566068E+00  9.039486148861E+00
  9.147959982647E+00  9.257735502439E+00  9.368828328468E+00  9.481254268410E+00
  9.595029319631E+00  9.710169671466E+00  9.826691707524E+00  9.944612008014E+00
  1.006394735211E+01  1.018471472034E+01  1.030693129698E+01  1.043061447254E+01
  1.055578184621E+01  1.068245122837E+01  1.081064064311E+01  1.094036833083E+01
  1.107165275080E+01  1.120451258381E+01  1.133896673481E+01  1.147503433563E+01
  1.161273474766E+01  1.175208756463E+01  1.189311261540E+01  1.203582996679E+01
  1.218025992639E+01  1.232642304551E+01  1.247434012205E+01  1.262403220352E+01
  1.277552058996E+01  1.292882683704E+01  1.308397275908E+01  1.324098043219E+01
  1.339987219738E+01  1.356067066375E+01  1.372339871171E+01  1.388807949625E+01
  1.405473645021E+01  1.422339328761E+01  1.439407400706E+01  1.456680289515E+01
  1.474160452989E+01  1.491850378425E+01  1.509752582966E+01  1.527869613961E+01
  1.546204049329E+01  1.564758497921E+01  1.583535599896E+01  1.602538027095E+01
  1.621768483420E+01  1.641229705221E+01  1.660924461684E+01  1.680855555224E+01
  1.701025821886E+01  1.721438131749E+01  1.742095389330E+01  1.763000534002E+01
  1.784156540410E+01  1.805566418895E+01  1.827233215922E+01  1.849160014513E+01
  1.871349934687E+01  1.893806133903E+01  1.916531807510E+01  1.939530189200E+01
  1.962804551471E+01  1.986358206088E+01  2.010194504561E+01  2.034316838616E+01
  2.058728640679E+01  2.083433384368E+01  2.108434584980E+01  2.133735800000E+01
  2.159340629600E+01  2.185252717155E+01  2.211475749761E+01  2.238013458758E+01
  2.264869620263E+01  2.292048055706E+01  2.319552632375E+01  2.347387263963E+01
  2.375555911131E+01  2.404062582064E+01  2.432911333049E+01  2.462106269046E+01
  2.491651544274E+01  2.521551362805E+01  2.551809979159E+01  2.582431698909E+01
  2.613420879296E+01  2.644781929847E+01  2.676519313006E+01  2.708637544762E+01
  2.741141195299E+01  2.774034889642E+01  2.807323308318E+01  2.841011188018E+01
  2.875103322274E+01  2.909604562141E+01  2.944519816887E+01  2.979854054690E+01
  3.015612303346E+01  3.051799650986E+01  3.088421246798E+01  3.125482301760E+01
  3.162988089381E+01  3.200943946453E+01  3.239355273811E+01  3.278227537096E+01
  3.317566267542E+01  3.357377062752E+01  3.397665587505E+01  3.438437574555E+01
  3.479698825450E+01  3.521455211355E+01  3.563712673892E+01  3.606477225978E+01
  3.649754952690E+01  3.693552012122E+01  3.737874636268E+01  3.782729131903E+01
  3.828121881486E+01  3.874059344064E+01  3.920548056192E+01  3.967594632867E+01
  4.015205768461E+01  4.063388237683E+01  4.112148896535E+01  4.161494683293E+01
  4.211432619493E+01  4.261969810927E+01  4.313113448658E+01  4.364870810042E+01
  4.417249259762E+01
</grid-data>
</grid>
<valence-charge total-charge="18" is-unscreening-charge="yes"
 rescaled-to-z-pseudo="no">
<radfunc>
<data npts="457">
  9.532755274933E-01  9.542504602157E-01  9.571658687115E-01  9.620331414284E-01
  9.688073217595E-01  9.777270480436E-01  9.891155319933E-01  1.002184403282E+00
  1.016914715908E+00  1.034140361573E+00  1.053618203371E+00  1.074863207482E+00
  1.100641611502E+00  1.127684152436E+00  1.159741567746E+00  1.191925601255E+00
  1.229193896705E+00  1.264724740634E+00  1.304905069856E+00  1.350360977483E+00
  1.401806662927E+00  1.447819988070E+00  1.498656557118E+00  1.554839621096E+00
  1.616951662011E+00  1.685641244697E+00  1.761630588724E+00  1.823893506378E+00
  1.891085476781E+00  1.963610051401E+00  2.041904332399E+00  2.126441528519E+00
  2.217733607002E+00  2.316334013517E+00  2.422840420948E+00  2.537897453987E+00
  2.662199319360E+00  2.796492250657E+00  2.891964440575E+00  2.992482585878E+00
  3.098308789866E+00  3.209716453001E+00  3.326990282509E+00  3.450426203490E+00
  3.580331152882E+00  3.717022735211E+00  3.860828716502E+00  4.012086329952E+00
  4.171141364066E+00  4.338347000858E+00  4.514062368558E+00  4.698650770029E+00
  4.892477544841E+00  5.095907519811E+00  5.309301999851E+00  5.533015248314E+00
  5.767390403889E+00  6.012754779591E+00  6.269414488822E+00  6.537648344094E+00
  6.817700976081E+00  7.109775124638E+00  7.414023059614E+00  7.730537098238E+00
  8.059339197957E+00  8.400369619464E+00  8.753474674786E+00  8.934478259983E+00
  9.118393600227E+00  9.305169083381E+00  9.494744624243E+00  9.687051193012E+00
  9.882010336453E+00  1.007953369337E+01  1.027952250626E+01  1.048186713121E+01
  1.068644654833E+01  1.089312787540E+01  1.110176588737E+01  1.131220254503E+01
  1.152426653607E+01  1.173777283237E+01  1.195252226725E+01  1.216830113724E+01
  1.238488083268E+01  1.260201750218E+01  1.281945175597E+01  1.303690841365E+01
  1.325409630200E+01  1.347070810878E+01  1.368642029874E+01  1.390089309813E+01
  1.411377055431E+01  1.432468067711E+01  1.453323566859E+01  1.473903224809E+01
  1.494165207909E+01  1.514066230476E+01  1.533561619828E+01  1.552605393443E+01
  1.571150348794E+01  1.589148166417E+01  1.606549526675E+01  1.623304240632E+01
  1.639361395367E+01  1.654669513964E+01  1.669176730316E+01  1.682830978752E+01
  1.695580198375E+01  1.707372551856E+01  1.718156658266E+01  1.727881839359E+01
  1.736498378553E+01  1.743957791650E+01  1.750213108145E+01  1.755219161766E+01
  1.758932888685E+01  1.761313631604E+01  1.762323447742E+01  1.761927418490E+01
  1.760093958355E+01  1.756795120565E+01  1.752006896563E+01  1.745709506441E+01
  1.737887677223E+01  1.728530905814E+01  1.717633703314E+01  1.705195817382E+01
  1.691222429321E+01  1.675724322574E+01  1.658718019427E+01  1.640225882847E+01
  1.620276180543E+01  1.598903108619E+01  1.576146772440E+01  1.552053122717E+01
  1.526673845181E+01  1.500066202711E+01  1.472292829221E+01  1.443421475205E+01
  1.413524705379E+01  1.382679549456E+01  1.350967107743E+01  1.318472113836E+01
  1.285282457347E+01  1.251488670212E+01  1.217183380707E+01  1.182460739882E+01
  1.147415825622E+01  1.112144030014E+01  1.076740436079E+01  1.041299190256E+01
  1.005912877253E+01  9.706719039958E+00  9.356638994856E+00  9.009731372762E+00
  8.666799871399E+00  8.328604022152E+00  7.995854475631E+00  7.669208755932E+00
  7.349267532691E+00  7.036571453661E+00  6.731598573571E+00  6.434762408052E+00
  6.146410635529E+00  5.866824463062E+00  5.596218661681E+00  5.334742267319E+00
  5.082479936378E+00  4.839453937546E+00  4.605626755194E+00  4.380906274710E+00
  4.165159475925E+00  3.958230962843E+00  3.759946484442E+00  3.570114848987E+00
  3.388530667541E+00  3.214976620241E+00  3.049225617505E+00  2.891042810548E+00
  2.740187453637E+00  2.596414619635E+00  2.459476771197E+00  2.329125190904E+00
  2.205111274478E+00  2.087187691926E+00  1.975109422041E+00  1.868634666149E+00
  1.767525647390E+00  1.671549302038E+00  1.580477869598E+00  1.494089388469E+00
  1.412168104011E+00  1.334504795891E+00  1.260897030944E+00  1.191149349003E+00
  1.125073387107E+00  1.062487948671E+00  1.003219023388E+00  9.470997634315E-01
  8.939704212296E-01  8.436782537849E-01  7.960773981752E-01  7.510287225582E-01
  7.083996566767E-01  6.680640055404E-01  6.299017496444E-01  5.937988347800E-01
  5.596469541968E-01  5.273433255900E-01  4.967904651185E-01  4.678959603989E-01
  4.405722441846E-01  4.147363702073E-01  3.903097924536E-01  3.672181489493E-01
  3.453910509517E-01  3.247618782803E-01  3.052675813726E-01  2.868484905156E-01
  2.694481325843E-01  2.530130555112E-01  2.374926606160E-01  2.228390428442E-01
  2.090068388882E-01  1.959530831066E-01  1.836370711026E-01  1.720202307812E-01
  1.610660006675E-01  1.507397152412E-01  1.410084970209E-01  1.318411551143E-01
  1.232080899412E-01  1.150812038284E-01  1.074338171740E-01  1.002405898795E-01
  9.347744775262E-02  8.712151358862E-02  8.115104264806E-02  7.554536225856E-02
  7.028481527866E-02  6.535070717496E-02  6.072525647549E-02  5.639154837576E-02
  5.233349128603E-02  4.853577612119E-02  4.498383814423E-02  4.166382119724E-02
  3.856254413363E-02  3.566746931733E-02  3.296667302994E-02  3.044881764863E-02
  2.810312546202E-02  2.591935399790E-02  2.388777274269E-02  2.199914113832E-02
  2.024468774776E-02  1.861609048640E-02  1.710545782217E-02  1.570531085361E-02
  1.440856618151E-02  1.320851949662E-02  1.209882981298E-02  1.107350428370E-02
  1.012688354360E-02  9.253627530259E-03  8.448701742611E-03  7.707363902944E-03
  7.025150994968E-03  6.397866656622E-03  5.821568911866E-03  5.292558230571E-03
  4.807365909820E-03  4.362742773427E-03  3.955648189271E-03  3.583239406188E-03
  3.242861213632E-03  2.932035928258E-03  2.648453711970E-03  2.389963225939E-03
  2.154562624642E-03  1.940390893267E-03  1.745719530794E-03  1.568944579938E-03
  1.408579003781E-03  1.263245407622E-03  1.131669103098E-03  1.012671510329E-03
  9.051638924517E-04  8.081414157174E-04  7.206775271788E-04  6.419186409917E-04
  5.710791234670E-04  5.074365664137E-04  4.503273376422E-04  3.991423971132E-04
  3.533233670440E-04  3.123588441240E-04  2.757809420034E-04  2.431620523675E-04
  2.141118131326E-04  1.882742726128E-04  1.653252388752E-04  1.449698039275E-04
  1.269400328323E-04  1.109928083132E-04  9.690782189680E-05  8.448570310618E-05
  7.354627868155E-05  6.392695424707E-05  5.548121126058E-05  4.807721247708E-05
  4.159650952409E-05  3.593284652710E-05  3.099105403880E-05  2.668602781657E-05
  2.294178726244E-05  1.969060858975E-05  1.687222801404E-05  1.443311048487E-05
  1.232577968199E-05  1.050820519628E-05  8.943243004934E-06  7.598125532000E-06
  6.443997762790E-06  5.455496052478E-06  4.610366438022E-06  3.889119427624E-06
  3.274718404021E-06  2.752298936931E-06  2.308916455814E-06  1.933319886697E-06
  1.615749005732E-06  1.347753407267E-06  1.122031125040E-06  9.322850814423E-07
  7.730956712376E-07  6.398079124106E-07  5.284317177442E-07  4.355539559986E-07
  3.582610811050E-07  2.940712114436E-07  2.408746390143E-07  1.968818401074E-07
  1.605781449967E-07  1.306843042756E-07  1.061222638771E-07  8.598552969892E-08
  6.951356630184E-08  5.606973255308E-08  4.512231059198E-08  3.622823333991E-08
  2.901916021873E-08  2.318959104371E-08  1.848674448391E-08  1.470196030049E-08
  1.166341404309E-08  9.229959263708E-09  7.285935844828E-09  5.736803973397E-09
  4.505481854537E-09  3.529281665047E-09  2.757352702469E-09  2.148553382792E-09
  1.669684857936E-09  1.294028729238E-09  1.000139778494E-09  7.708519643647E-10
  5.924622677380E-10  4.540624316834E-10  3.469933358478E-10  2.644007667567E-10
  2.008747800911E-10  1.521577750314E-10  1.149088822105E-10  8.651436599400E-11
  6.493551189552E-11  4.858695775138E-11  3.623967375761E-11  2.694383737844E-11
  1.996771550286E-11  1.474938497450E-11  1.085871658702E-11  7.967539664943E-12
  5.826294267820E-12  3.758641706200E-12  2.735008856768E-12  1.983130995776E-12
  1.432816944198E-12  1.031473813839E-12  7.398355797308E-13  5.286920829197E-13
  3.763932512090E-13  2.669518128876E-13  1.886063462486E-13  1.327370674799E-13
  9.305088018808E-14  6.497117369472E-14  4.518270788130E-14  3.129350551052E-14
  2.158467111087E-14  1.482601709928E-14  1.014074160535E-14  6.906517984443E-15
  4.683500490161E-15  3.162142925858E-15  2.125539398541E-15  1.422363234683E-15
  9.475066095282E-16  6.282908596441E-16  4.146886066243E-16  2.724219818745E-16
  1.781133189212E-16  1.158937649495E-16  7.504263888575E-17  4.835207248489E-17
  3.099954874460E-17  1.977438263555E-17  1.254964570477E-17  7.923450250949E-18
  4.976506673854E-18  3.109101870896E-18  1.932047548811E-18  1.194112442015E-18
  7.339879180842E-19  4.486629958434E-19  2.727157862500E-19  1.648274999029E-19
  9.904869523919E-20  5.917489663427E-20  3.514515959421E-20  2.074923186654E-20
  1.217631484891E-20  7.101915728036E-21  4.116698019296E-21  2.371395408187E-21
  1.357398919851E-21  7.720166419228E-22  0.000000000000E+00  0.000000000000E+00
  0.000000000000E+00  0.000000000000E+00  0.000000000000E+00  0.000000000000E+00
  0.000000000000E+00  0.000000000000E+00  0.000000000000E+00  0.000000000000E+00
  0.000000000000E+00  0.000000000000E+00  0.000000000000E+00  0.000000000000E+00
  0.000000000000E+00  0.000000000000E+00  0.000000000000E+00  0.000000000000E+00
  0.000000000000E+00
</data>
</radfunc>
</valence-charge>
<pseudocore-charge matching-radius="0.812232228567"
 number-of-continuous-derivatives="4">
<annotation model-charge-form="Teter function with specified parameters" />
<radfunc>
<data npts="275">
  9.224688271409E+01  9.224089425214E+01  9.222299276205E+01  9.219312704525E+01
  9.215160369536E+01  9.209700527509E+01  9.202742087178E+01  9.194774146963E+01
  9.185815144610E+01  9.175367652653E+01  9.163591695012E+01  9.150792221578E+01
  9.135323583156E+01  9.119168488321E+01  9.100111623659E+01  9.081080411370E+01
  9.059166711235E+01  9.038396118871E+01  9.015047488406E+01  8.988808443449E+01
  8.959330802724E+01  8.933157894970E+01  8.904446992635E+01  8.872961073805E+01
  8.838442888151E+01  8.800613638109E+01  8.759171666776E+01  8.725524296166E+01
  8.689515280563E+01  8.650989580572E+01  8.609783626789E+01  8.565725113462E+01
  8.518632835311E+01  8.468316578099E+01  8.414577075065E+01  8.357206043079E+01
  8.295986314202E+01  8.230692080418E+01  8.184783712184E+01  8.136889291401E+01
  8.086936087607E+01  8.034850036198E+01  7.980555864020E+01  7.923977235707E+01
  7.865036922597E+01  7.803656996192E+01  7.739759048176E+01  7.673264439098E+01
  7.604094577923E+01  7.532171234647E+01  7.457416888282E+01  7.379755112479E+01
  7.299111001083E+01  7.215411635852E+01  7.128586598515E+01  7.038568529215E+01
  6.945293733207E+01  6.848702837478E+01  6.748741498634E+01  6.645361163044E+01
  6.538519879782E+01  6.428183166336E+01  6.314324926419E+01  6.196928418432E+01
  6.075987272220E+01  5.951506550743E+01  5.823503852069E+01  5.758190967320E+01
  5.692010445784E+01  5.624968523228E+01  5.557072436377E+01  5.488330460081E+01
  5.418751944508E+01  5.348347352247E+01  5.277128295211E+01  5.205107571215E+01
  5.132299200099E+01  5.058718459261E+01  4.984381918442E+01  4.909307473601E+01
  4.833514379730E+01  4.757023282403E+01  4.679856247884E+01  4.602036791603E+01
  4.523589904767E+01  4.444542078906E+01  4.364921328123E+01  4.284757208797E+01
  4.204080836508E+01  4.122924899910E+01  4.041323671310E+01  3.959313013658E+01
  3.876930383683E+01  3.794214830890E+01  3.711206992128E+01  3.627949081432E+01
  3.544484874855E+01  3.460859689982E+01  3.377120359846E+01  3.293315200945E+01
  3.209493975081E+01  3.125707844741E+01  3.042009321745E+01  2.958452208919E+01
  2.875091534540E+01  2.791983479337E+01  2.709185295845E+01  2.626755219937E+01
  2.544752374387E+01  2.463236664350E+01  2.382268664675E+01  2.301909499023E+01
  2.222220710780E+01  2.143264125842E+01  2.065101707349E+01  1.987795402563E+01
  1.911406982090E+01  1.835997871754E+01  1.761628977467E+01  1.688360503545E+01
  1.616251764961E+01  1.545360994135E+01  1.475745142926E+01  1.407459680583E+01
  1.340558388496E+01  1.275093152673E+01  1.211113754953E+01  1.148667664072E+01
  1.087799827745E+01  1.028552467046E+01  9.709648744268E+00  9.150732167925E+00
  8.609103451105E+00  8.085056121026E+00  7.578846996030E+00  7.090694572095E+00
  6.620777538803E+00  6.169233441347E+00  5.736157505150E+00  5.321601639403E+00
  4.925573635437E+00  4.548036575190E+00  4.188908464224E+00  3.848062102652E+00
  3.525325206044E+00  3.220480786835E+00  2.933267804960E+00  2.663382094413E+00
  2.410477570135E+00  2.174167717137E+00  1.954027361030E+00  1.749594716193E+00
  1.560373704726E+00  1.385836536051E+00  1.225426533695E+00  1.078561192320E+00
  9.446354446605E-01  8.230251145607E-01  7.130905290205E-01  6.141802589617E-01
  5.256349554910E-01  4.467912457764E-01  3.769856503594E-01  3.155584818710E-01
  2.618576837608E-01  2.152425668693E-01  1.750874015173E-01  1.407848233163E-01
  1.117490121657E-01  8.741860590978E-02  6.725931291955E-02  5.076619142307E-02
  3.746556771960E-02  2.691657044237E-02  1.871226371521E-02  1.248036830155E-02
  7.883566563998E-03  4.619394113655E-03  2.419728284577E-03  1.049890857055E-03
  3.073895960530E-04  2.032998047452E-05  4.553478193087E-05  2.664147163815E-04
  5.906380535002E-04  9.476506565946E-04  1.286100291766E-03  1.571220069394E-03
  1.782225480900E-03  1.909777628729E-03  1.953561925427E-03  1.920026818256E-03
  1.820321093010E-03  1.668461192316E-03  1.479751969082E-03  1.269475650280E-03
  1.051854813444E-03  8.392862091002E-04  6.418336420500E-04  4.669601973173E-04
  3.194731893910E-04  2.016496181222E-04  1.135058713239E-04  5.317309536800E-05
  1.733915269347E-05  1.719400545398E-06  1.521564381329E-06  1.187455306119E-05
  2.819689333060E-05  4.648719436472E-05  6.352627807729E-05  7.698788301514E-05
  8.546171922633E-05  8.839869404317E-05  8.599297577522E-05  7.901892992288E-05
  6.864267514261E-05  5.622801332727E-05  4.315487180256E-05  3.066536691699E-05
  1.974848273352E-05  1.106957019861E-05  4.945878357581E-06  1.364608168922E-06
  3.597503896806E-08  4.708434739690E-07  2.070904502943E-06  4.219207669572E-06
  6.360081024389E-06  8.059868168088E-06  9.043143540165E-06  9.202706068907E-06
  8.585226538314E-06  7.357483146176E-06  5.760286954253E-06  4.058225753340E-06
  2.493154961695E-06  1.248026646418E-06  4.254252847994E-07  4.245097680697E-08
  0.000000000000E+00  0.000000000000E+00  0.000000000000E+00  0.000000000000E+00
  0.000000000000E+00  0.000000000000E+00  0.000000000000E+00  0.000000000000E+00
  0.000000000000E+00  0.000000000000E+00  0.000000000000E+00  0.000000000000E+00
  0.000000000000E+00  0.000000000000E+00  0.000000000000E+00  0.000000000000E+00
  0.000000000000E+00  0.000000000000E+00  0.000000000000E+00  0.000000000000E+00
  0.000000000000E+00  0.000000000000E+00  0.000000000000E+00  0.000000000000E+00
  0.000000000000E+00  0.000000000000E+00  0.000000000000E+00  0.000000000000E+00
  0.000000000000E+00  0.000000000000E+00  0.000000000000E+00  0.000000000000E+00
  0.000000000000E+00  0.000000000000E+00  0.000000000000E+00
</data>
</radfunc>
</pseudocore-charge>
<semilocal-potentials set="scalar_relativistic">
<slps n="5" l="s" rc="1.45722069575" eref="-3.74408362694">
<radfunc>
<data npts="275">
  4.900192367200E+00  4.892267539039E+00  4.868597094275E+00  4.829171599278E+00
  4.774491149775E+00  4.702829232551E+00  4.611885164240E+00  4.508276837353E+00
  4.392451365884E+00  4.258269457809E+00  4.108158985323E+00  3.946348269172E+00
  3.752641550971E+00  3.552465955672E+00  3.319083182859E+00  3.088931452947E+00
  2.827462043977E+00  2.583062586019E+00  2.312231513600E+00  2.012694878475E+00
  1.682124759121E+00  1.393747845402E+00  1.082817642172E+00  7.481736161024E-01
  3.887060394515E-01  3.380031237786E-03 -4.087375677297E-01 -7.358959857038E-01
 -1.078858803789E+00 -1.437846296066E+00 -1.813011197606E+00 -2.204430496446E+00
 -2.612097267197E+00 -3.035912699309E+00 -3.475678488963E+00 -3.931089776222E+00
 -4.401728817332E+00 -4.887059584673E+00 -5.218455411070E+00 -5.555864711371E+00
 -5.899036359261E+00 -6.247694060210E+00 -6.601536391755E+00 -6.960236991402E+00
 -7.323444895631E+00 -7.690785031615E+00 -8.061858861244E+00 -8.436245174900E+00
 -8.813501030230E+00 -9.193162828903E+00 -9.574747522098E+00 -9.957753933292E+00
 -1.034166418483E+01 -1.072594521280E+01 -1.111005035317E+01 -1.149342098032E+01
 -1.187548817843E+01 -1.225567442470E+01 -1.263339526354E+01 -1.300806095003E+01
 -1.337907804181E+01 -1.374585091870E+01 -1.410778321090E+01 -1.446427911734E+01
 -1.481474459840E+01 -1.515858842853E+01 -1.549522309733E+01 -1.566065460074E+01
 -1.582406555015E+01 -1.598538385416E+01 -1.614453776239E+01 -1.630145587422E+01
 -1.645606714481E+01 -1.660830088871E+01 -1.675808678083E+01 -1.690535485501E+01
 -1.705003550030E+01 -1.719205945493E+01 -1.733135779815E+01 -1.746786194015E+01
 -1.760150361010E+01 -1.773221484250E+01 -1.785992796213E+01 -1.798457556766E+01
 -1.810609051422E+01 -1.822440589524E+01 -1.833945502362E+01 -1.845117141270E+01
 -1.855948875730E+01 -1.866434091498E+01 -1.876566188814E+01 -1.886338580700E+01
 -1.895744691416E+01 -1.904777955082E+01 -1.913431814538E+01 -1.921699720464E+01
 -1.929575130814E+01 -1.937051510621E+01 -1.944122332205E+01 -1.950781075859E+01
 -1.957021231047E+01 -1.962836298188E+01 -1.968219791074E+01 -1.973165239987E+01
 -1.977666195577E+01 -1.981716233569E+01 -1.985308960354E+01 -1.988438019541E+01
 -1.991097099534E+01 -1.993279942198E+01 -1.994980352686E+01 -1.996192210497E+01
 -1.996909481820E+01 -1.997126233249E+01 -1.996836646913E+01 -1.996035037101E+01
 -1.994715868424E+01 -1.992873775593E+01 -1.990503584837E+01 -1.987600337043E+01
 -1.984159312637E+01 -1.980176058259E+01 -1.975646415262E+01 -1.970566550074E+01
 -1.964932986432E+01 -1.958742639529E+01 -1.951992852067E+01 -1.944681432240E+01
 -1.936806693642E+01 -1.928367497113E+01 -1.919363294502E+01 -1.909794174365E+01
 -1.899660909571E+01 -1.888965006838E+01 -1.877708758183E+01 -1.865895294316E+01
 -1.853528640012E+01 -1.840613771506E+01 -1.827156676026E+01 -1.813164413587E+01
 -1.798645181276E+01 -1.783608380307E+01 -1.768064686272E+01 -1.752026123121E+01
 -1.735506141616E+01 -1.718519703196E+01 -1.701083370490E+01 -1.683215405987E+01
 -1.664935880815E+01 -1.646266795965E+01 -1.627232218831E+01 -1.607858438487E+01
 -1.588174143741E+01 -1.568210628627E+01 -1.548002030702E+01 -1.527585608096E+01
 -1.507002061852E+01 -1.486295910518E+01 -1.465515924128E+01 -1.444715624567E+01
 -1.423953858741E+01 -1.403295449699E+01 -1.382811929120E+01 -1.362582351783E+01