<?xml version="1.0" encoding="UTF-8" ?>
<psml version="1.1" energy_unit="hartree" length_unit="bohr"
 uuid="9ebb48a0-1d60-11e8-44e5-db87b6fccf9d"
 xmlns="http://esl.cecam.org/PSML/ns/1.1">
<provenance creator="ONCVPSP-3.3.0+psml-3.3.0-73 (scalar-relativistic)"
 date="2018-03-01">
<annotation action="semilocal-pseudopotential-generation"
 action-cont="projectors-generation" />
<input-file name="oncvpsp-input">
<![CDATA[# atsym z nc nv iexc psfile
Lu 71 9 5 -116133 upf
# n l f
1 0 2.0
2 0 2.0
2 1 6.0
3 0 2.0
3 1 6.0
3 2 10.0
4 0 2.0
4 1 6.0
4 2 10.0
5 0 2.0
5 1 6.0
4 3 14.0
5 2 1.0
6 0 2.0
# lmax
3
# l rc ep ncon nbas qcut
0 1.55 0.0 4 8 7.5
1 1.6 0.0 4 8 8.0
2 1.45 0.0 4 8 9.0
3 1.85 0.0 4 8 9.8
# lloc lpopt rc5 dvloc0
4 5 1.3 0
# l nproj debl
0 2 1.0
1 2 1.0
2 2 1.0
3 2 1.5
# icmod fcfact rcfact
3 4.0 1.4
# epsh1 epsh2 depsh
-12.0 12.0 0.02
# rlmax drl
6.0 0.01
 0
]]>
</input-file>
</provenance>
<pseudo-atom-spec atomic-label="Lu" atomic-number="71" z-pseudo="25"
 flavor="Hamann&apos;s oncvpsp" relativity="scalar" spin-dft="no"
 core-corrections="yes">
<annotation pseudo-energy="-233.965560087" />
<exchange-correlation>
<annotation oncvpsp-xc-code="-116133" oncvpsp-xc-type="libxc-interface" />
<libxc-info number-of-functionals="2">
<functional name="Perdew, Burke &amp; Ernzerhof SOL (GGA)" type="exchange"
 id="116" />
<functional name="Perdew, Burke &amp; Ernzerhof SOL (GGA)" type="correlation"
 id="133" />
</libxc-info>
</exchange-correlation>
<valence-configuration total-valence-charge="25">
<shell n="5" l="s" occupation="2" />
<shell n="5" l="p" occupation="6" />
<shell n="4" l="f" occupation="14" />
<shell n="5" l="d" occupation="1" />
<shell n="6" l="s" occupation="2" />
</valence-configuration>
</pseudo-atom-spec>
<grid npts="457">
<annotation type="sampled from oncvpsp log grid"
 recipe="r(i:1..N) = r1*exp(a*(i-1)) + r=0; resampled"
 recipe-cont="r1: scale; a: step" scale="0.704225352113E-05"
 step="0.119285708653E-01" delta="0.500000000000E-02" rmax="44.1107112591" />
<grid-data>
  0.000000000000E+00  5.037024290493E-03  1.006106072879E-02  1.509319543437E-02
  2.009617924206E-02  2.520828110912E-02  3.050924308962E-02  3.562690500806E-02
  4.110969416506E-02  4.631795440764E-02  5.156725138349E-02  5.673069230746E-02
  6.241114977700E-02  6.784623792449E-02  7.288008089934E-02  7.828740921208E-02
  8.409593355974E-02  8.926424963538E-02  9.475019689634E-02  1.005732961243E-01
  1.067542677972E-01  1.119714484380E-01  1.174435975630E-01  1.231831757198E-01
  1.292032524146E-01  1.355175358726E-01  1.421404042528E-01  1.473191090791E-01
  1.526864934285E-01  1.582494315994E-01  1.640150483464E-01  1.699907280058E-01
  1.761841239525E-01  1.826031684025E-01  1.892560825720E-01  1.961513872068E-01
  2.032979134951E-01  2.107048143783E-01  2.157920714167E-01  2.210021551890E-01
  2.263380312238E-01  2.318027366497E-01  2.373993819234E-01  2.431311526005E-01
  2.490013111489E-01  2.550131988053E-01  2.611702374773E-01  2.674759316909E-01
  2.739338705856E-01  2.805477299571E-01  2.873212743492E-01  2.942583591970E-01
  3.013629330215E-01  3.086390396764E-01  3.160908206503E-01  3.237225174241E-01
  3.315384738848E-01  3.395431387982E-01  3.477410683414E-01  3.561369286954E-01
  3.647354987019E-01  3.735416725825E-01  3.825604627253E-01  3.917970025374E-01
  4.012565493666E-01  4.109444874946E-01  4.208663312006E-01  4.259167271750E-01
  4.310277279011E-01  4.362000606359E-01  4.414344613636E-01  4.467316748999E-01
  4.520924549987E-01  4.575175644587E-01  4.630077752322E-01  4.685638685350E-01
  4.741866349574E-01  4.798768745769E-01  4.856353970718E-01  4.914630218367E-01
  4.973605780987E-01  5.033289050359E-01  5.093688518964E-01  5.154812781191E-01
  5.216670534565E-01  5.279270580980E-01  5.342621827952E-01  5.406733289887E-01
  5.471614089366E-01  5.537273458439E-01  5.603720739940E-01  5.670965388819E-01
  5.739016973485E-01  5.807885177167E-01  5.877579799293E-01  5.948110756884E-01
  6.019488085967E-01  6.091721942998E-01  6.164822606314E-01  6.238800477590E-01
  6.313666083321E-01  6.389430076321E-01  6.466103237237E-01  6.543696476084E-01
  6.622220833797E-01  6.701687483802E-01  6.782107733608E-01  6.863493026411E-01
  6.945854942728E-01  7.029205202041E-01  7.113555664465E-01  7.198918332439E-01
  7.285305352428E-01  7.372729016657E-01  7.461201764857E-01  7.550736186036E-01
  7.641345020268E-01  7.733041160511E-01  7.825837654437E-01  7.919747706291E-01
  8.014784678766E-01  8.110962094911E-01  8.208293640050E-01  8.306793163731E-01
  8.406474681696E-01  8.507352377876E-01  8.609440606411E-01  8.712753893687E-01
  8.817306940412E-01  8.923114623697E-01  9.030191999181E-01  9.138554303171E-01
  9.248216954809E-01  9.359195558267E-01  9.471505904966E-01  9.585163975826E-01
  9.700185943536E-01  9.816588174858E-01  9.934387232956E-01  1.005359987975E+00
  1.017424307831E+00  1.029633399525E+00  1.041989000319E+00  1.054492868323E+00
  1.067146782743E+00  1.079952544136E+00  1.092911974665E+00  1.106026918361E+00
  1.119299241382E+00  1.132730832278E+00  1.146323602266E+00  1.160079485493E+00
  1.174000439319E+00  1.188088444591E+00  1.202345505926E+00  1.216773651997E+00
  1.231374935821E+00  1.246151435051E+00  1.261105252271E+00  1.276238515298E+00
  1.291553377482E+00  1.307052018012E+00  1.322736642228E+00  1.338609481935E+00
  1.354672795718E+00  1.370928869267E+00  1.387380015698E+00  1.404028575886E+00
  1.420876918797E+00  1.437927441822E+00  1.455182571124E+00  1.472644761978E+00
  1.490316499121E+00  1.508200297111E+00  1.526298700676E+00  1.544614285084E+00
  1.563149656505E+00  1.581907452383E+00  1.600890341812E+00  1.620101025914E+00
  1.639542238225E+00  1.659216745083E+00  1.679127346024E+00  1.699276874177E+00
  1.719668196667E+00  1.740304215027E+00  1.761187865607E+00  1.782322119994E+00
  1.803709985434E+00  1.825354505260E+00  1.847258759323E+00  1.869425864434E+00
  1.891858974808E+00  1.914561282505E+00  1.937536017895E+00  1.960786450110E+00
  1.984315887512E+00  2.008127678162E+00  2.032225210300E+00  2.056611912823E+00
  2.081291255777E+00  2.106266750846E+00  2.131541951857E+00  2.157120455279E+00
  2.183005900742E+00  2.209201971551E+00  2.235712395210E+00  2.262540943952E+00
  2.289691435280E+00  2.317167732503E+00  2.344973745293E+00  2.373113430237E+00
  2.401590791399E+00  2.430409880896E+00  2.459574799467E+00  2.489089697061E+00
  2.518958773425E+00  2.549186278706E+00  2.579776514051E+00  2.610733832219E+00
  2.642062638206E+00  2.673767389865E+00  2.705852598543E+00  2.738322829725E+00
  2.771182703682E+00  2.804436896126E+00  2.838090138880E+00  2.872147220546E+00
  2.906612987193E+00  2.941492343039E+00  2.976790251156E+00  3.012511734170E+00
  3.048661874980E+00  3.085245817479E+00  3.122268767289E+00  3.159735992497E+00
  3.197652824407E+00  3.236024658300E+00  3.274856954199E+00  3.314155237649E+00
  3.353925100501E+00  3.394172201707E+00  3.434902268128E+00  3.476121095345E+00
  3.517834548489E+00  3.560048563071E+00  3.602769145828E+00  3.646002375578E+00
  3.689754404085E+00  3.734031456934E+00  3.778839834417E+00  3.824185912430E+00
  3.870076143379E+00  3.916517057100E+00  3.963515261785E+00  4.011077444927E+00
  4.059210374266E+00  4.107920898757E+00  4.157215949542E+00  4.207102540937E+00
  4.257587771428E+00  4.308678824685E+00  4.360382970581E+00  4.412707566228E+00
  4.465660057023E+00  4.519247977707E+00  4.573478953440E+00  4.628360700881E+00
  4.683901029291E+00  4.740107841643E+00  4.796989135743E+00  4.854553005372E+00
  4.912807641436E+00  4.971761333133E+00  5.031422469131E+00  5.091799538760E+00
  5.152901133226E+00  5.214735946824E+00  5.277312778186E+00  5.340640531524E+00
  5.404728217903E+00  5.469584956518E+00  5.535219975996E+00  5.601642615708E+00
  5.668862327096E+00  5.736888675021E+00  5.805731339122E+00  5.875400115191E+00
  5.945904916573E+00  6.017255775572E+00  6.089462844879E+00  6.162536399018E+00
  6.236486835806E+00  6.311324677836E+00  6.387060573970E+00  6.463705300857E+00
  6.541269764467E+00  6.619765001641E+00  6.699202181661E+00  6.779592607841E+00
  6.860947719135E+00  6.943279091764E+00  7.026598440866E+00  7.110917622156E+00
  7.196248633622E+00  7.282603617225E+00  7.369994860632E+00  7.458434798960E+00
  7.547936016547E+00  7.638511248746E+00  7.730173383731E+00  7.822935464335E+00
  7.916810689907E+00  8.011812418186E+00  8.107954167205E+00  8.205249617211E+00
  8.303712612617E+00  8.403357163969E+00  8.504197449937E+00  8.606247819336E+00
  8.709522793168E+00  8.814037066686E+00  8.919805511486E+00  9.026843177624E+00
  9.135165295755E+00  9.244787279304E+00  9.355724726656E+00  9.467993423376E+00
  9.581609344456E+00  9.696588656590E+00  9.812947720469E+00  9.930703093115E+00
  1.004987153023E+01  1.017046998859E+01  1.029251562846E+01  1.041602581600E+01
  1.054101812579E+01  1.066751034330E+01  1.079552046742E+01  1.092506671303E+01
  1.105616751359E+01  1.118884152375E+01  1.132310762203E+01  1.145898491350E+01
  1.159649273246E+01  1.173565064525E+01  1.187647845299E+01  1.201899619443E+01
  1.216322414876E+01  1.230918283855E+01  1.245689303261E+01  1.260637574900E+01
  1.275765225799E+01  1.291074408508E+01  1.306567301411E+01  1.322246109028E+01
  1.338113062336E+01  1.354170419084E+01  1.370420464113E+01  1.386865509682E+01
  1.403507895798E+01  1.420349990548E+01  1.437394190435E+01  1.454642920720E+01
  1.472098635768E+01  1.489763819398E+01  1.507640985230E+01  1.525732677053E+01
  1.544041469178E+01  1.562569966808E+01  1.581320806410E+01  1.600296656087E+01
  1.619500215960E+01  1.638934218551E+01  1.658601429174E+01  1.678504646324E+01
  1.698646702080E+01  1.719030462505E+01  1.739658828055E+01  1.760534733991E+01
  1.781661150799E+01  1.803041084609E+01  1.824677577624E+01  1.846573708556E+01
  1.868732593058E+01  1.891157384175E+01  1.913851272785E+01  1.936817488059E+01
  1.960059297915E+01  1.983580009490E+01  2.007382969604E+01  2.031471565239E+01
  2.055849224022E+01  2.080519414711E+01  2.105485647687E+01  2.130751475459E+01
  2.156320493165E+01  2.182196339083E+01  2.208382695152E+01  2.234883287494E+01
  2.261701886944E+01  2.288842309587E+01  2.316308417302E+01  2.344104118309E+01
  2.372233367729E+01  2.400700168142E+01  2.429508570160E+01  2.458662673002E+01
  2.488166625078E+01  2.518024624579E+01  2.548240920073E+01  2.578819811114E+01
  2.609765648848E+01  2.641082836634E+01  2.672775830674E+01  2.704849140642E+01
  2.737307330329E+01  2.770155018293E+01  2.803396878513E+01  2.837037641055E+01
  2.871082092748E+01  2.905535077861E+01  2.940401498795E+01  2.975686316780E+01
  3.011394552582E+01  3.047531287213E+01  3.084101662659E+01  3.121110882611E+01
  3.158564213203E+01  3.196466983761E+01  3.234824587566E+01  3.273642482617E+01
  3.312926192408E+01  3.352681306717E+01  3.392913482398E+01  3.433628444187E+01
  3.474831985517E+01  3.516529969343E+01  3.558728328975E+01  3.601433068923E+01
  3.644650265750E+01  3.688386068939E+01  3.732646701766E+01  3.777438462187E+01
  3.822767723734E+01  3.868640936418E+01  3.915064627655E+01  3.962045403187E+01
  4.009589948026E+01  4.057705027402E+01  4.106397487731E+01  4.155674257583E+01
  4.205542348674E+01  4.256008856859E+01  4.307080963141E+01  4.358765934699E+01
  4.411071125915E+01
</grid-data>
</grid>
<valence-charge total-charge="25" is-unscreening-charge="yes"
 rescaled-to-z-pseudo="no">
<radfunc>
<data npts="457">
  6.150822350746E-02  6.170486797158E-02  6.229308690360E-02  6.327572760743E-02
  6.464466495923E-02  6.644963182566E-02  6.875847716195E-02  7.141437829308E-02
  7.473164300579E-02  7.834269845453E-02  8.244517679650E-02  8.694521060547E-02
  9.244416074856E-02  9.826236217108E-02  1.041561913938E-01  1.110526567695E-01
  1.191464853785E-01  1.269792101835E-01  1.359838316520E-01  1.463721818963E-01
  1.584059849848E-01  1.694344767815E-01  1.819283469677E-01  1.961354401331E-01
  2.123571007436E-01  2.309616119909E-01  2.524011820960E-01  2.706720987817E-01
  2.911312974877E-01  3.141109275918E-01  3.400019032136E-01  3.692648252738E-01
  4.024428600734E-01  4.401768785808E-01  4.832231904182E-01  5.324742325392E-01
  5.889825913710E-01  6.539887440778E-01  7.027581579554E-01  7.564423221185E-01
  8.155912325232E-01  8.808163610337E-01  9.527967925622E-01  1.032285784985E+00
  1.120117736641E+00  1.217215532871E+00  1.324598226574E+00  1.443388987650E+00
  1.574823231966E+00  1.720256811636E+00  1.881174114376E+00  2.059195880070E+00
  2.256086496943E+00  2.473760487569E+00  2.714287836176E+00  2.979897743265E+00
  3.272980321783E+00  3.596085671618E+00  3.951919687054E+00  4.343335866958E+00
  4.773322312034E+00  5.244983011123E+00  5.761512443340E+00  6.326162460626E+00
  6.942200372731E+00  7.612857142332E+00  8.341264621543E+00  8.728058352504E+00
  9.130380834145E+00  9.548560299615E+00  9.982902443158E+00  1.043368694105E+01
  1.090116375498E+01  1.138554921909E+01  1.188702191401E+01  1.240571833328E+01
  1.294172835063E+01  1.349509049881E+01  1.406578707432E+01  1.465373908552E+01
  1.525880106536E+01  1.588075577404E+01  1.651930882101E+01  1.717408324039E+01
  1.784461405846E+01  1.853034289708E+01  1.923061266171E+01  1.994466236826E+01
  2.067162216813E+01  2.141050863620E+01  2.216022039191E+01  2.291953412856E+01
  2.368710113094E+01  2.446144436597E+01  2.524095623498E+01  2.602389707997E+01
  2.680839453852E+01  2.759244384438E+01  2.837390917101E+01  2.915052611533E+01
  2.991990541675E+01  3.067953800346E+01  3.142680145246E+01  3.215896794301E+01
  3.287321377391E+01  3.356663050369E+01  3.423623775912E+01  3.487899774122E+01
  3.549183143952E+01  3.607163654405E+01  3.661530702087E+01  3.711975429109E+01
  3.758192992476E+01  3.799884973110E+01  3.836761909383E+01  3.868545936747E+01
  3.894973511568E+01  3.915798193819E+01  3.930793459823E+01  3.939755512903E+01
  3.942506056630E+01  3.938894992466E+01  3.928803001098E+01  3.912143964682E+01
  3.888867185771E+01  3.858959357887E+01  3.822446242689E+01  3.779394009556E+01
  3.729910195224E+01  3.674144243993E+01  3.612287592954E+01  3.544573271804E+01
  3.471274992993E+01  3.392705715303E+01  3.309215672309E+01  3.221189866494E+01
  3.129045039948E+01  3.033226143321E+01  2.934202335910E+01  2.832462561093E+01
  2.728510752532E+01  2.622860737313E+01  2.516030912119E+01  2.408538777283E+01
  2.300895420841E+01  2.193600050014E+01  2.087134670725E+01  1.981959016470E+01
  1.878505825810E+01  1.777176562971E+01  1.678337668308E+01  1.582317414889E+01
  1.489403434265E+01  1.399840958963E+01  1.313831811738E+01  1.231534152632E+01
  1.153062975111E+01  1.078491322545E+01  1.007852176931E+01  9.411409536608E+00
  8.783185201987E+00  8.193146432825E+00  7.640317594492E+00  7.123489576665E+00
  6.641260609969E+00  6.192076966000E+00  5.774272498707E+00  5.386106088386E+00
  5.025796186121E+00  4.691551819114E+00  4.381599597766E+00  4.094206398998E+00
  3.827697461584E+00  3.580470082483E+00  3.351003678755E+00  3.137866423183E+00
  2.939718602658E+00  2.755313686824E+00  2.583498319143E+00  2.423212009572E+00
  2.273486507400E+00  2.133446020883E+00  2.002302233073E+00  1.879347074081E+00
  1.763947083234E+00  1.655537415555E+00  1.553616238178E+00  1.457739446761E+00
  1.367515692555E+00  1.282601672752E+00  1.202697620250E+00  1.127542927175E+00
  1.056909912061E+00  9.905902810658E-01  9.283796497986E-01  8.700757552870E-01
  8.154813880417E-01  7.644036735142E-01  7.166546465933E-01  6.720515727498E-01
  6.304172397387E-01  5.915802028677E-01  5.553749852835E-01  5.216422352609E-01
  4.902288426193E-01  4.609880165425E-01  4.337793272171E-01  4.084687138119E-01
  3.849284614165E-01  3.630371496184E-01  3.426795754403E-01  3.237466533730E-01
  3.061352951738E-01  2.897482721314E-01  2.744940622828E-01  2.602866850024E-01
  2.470455251848E-01  2.346951490434E-01  2.231651133278E-01  2.123897695463E-01
  2.023080645634E-01  1.928633387609E-01  1.840031227944E-01  1.756789338616E-01
  1.678460723203E-01  1.604634194438E-01  1.534932370774E-01  1.469009699428E-01
  1.406550513224E-01  1.347267128333E-01  1.290897989641E-01  1.237205869969E-01
  1.185976128698E-01  1.137015034607E-01  1.090148156824E-01  1.045218826990E-01
  1.002086674760E-01  9.606262381233E-02  9.207256489036E-02  8.822853936127E-02
  8.452171488425E-02  8.094426900579E-02  7.748928722096E-02  7.415066802472E-02
  7.092303473514E-02  6.780165384943E-02  6.478235967870E-02  6.186148499603E-02
  5.903579742478E-02  5.630244128979E-02  5.365888465161E-02  5.110287124374E-02
  4.863237703437E-02  4.624557113654E-02  4.394078079494E-02  4.171646018184E-02
  3.957116274100E-02  3.750351682440E-02  3.551220437454E-02  3.359594241282E-02
  3.175346710397E-02  2.998352017611E-02  2.828483748743E-02  2.665613954167E-02
  2.509612376808E-02  2.360345839471E-02  2.217677775826E-02  2.081467890841E-02
  1.951571937169E-02  1.827841600420E-02  1.710124474717E-02  1.598264128516E-02
  1.492100248696E-02  1.391468856776E-02  1.296202590864E-02  1.206131047139E-02
  1.121081174711E-02  1.040877717427E-02  9.653436958827E-03  8.943009223697E-03
  8.275705410988E-03  7.649735855869E-03  7.063315448678E-03  6.514669301025E-03
  6.002038333011E-03  5.523684702331E-03  5.077897001770E-03  4.662995159219E-03
  4.277334983475E-03  3.919312309267E-03  3.587366705697E-03  3.279984723207E-03
  2.995702664734E-03  2.733108876763E-03  2.490845565007E-03  2.267610147488E-03
  2.062156164555E-03  1.873293770967E-03  1.699889839519E-03  1.540867708197E-03
  1.395206607960E-03  1.261940799258E-03  1.140158465976E-03  1.029000419946E-03
  9.276583821792E-04  8.353741833854E-04  7.514359187722E-04  6.751785122869E-04
  6.059834591000E-04  5.432694871140E-04  4.864944392358E-04  4.351580890448E-04
  3.887959467009E-04  3.469764511211E-04  3.093001373369E-04  2.753978501053E-04
  2.449288783438E-04  2.175792098825E-04  1.930598457041E-04  1.711051812363E-04
  1.514714565809E-04  1.339352766916E-04  1.182922017855E-04  1.043554076713E-04
  9.195441518640E-05  8.093388755536E-05  7.115249418372E-05  6.248183917316E-05
  5.480545267629E-05  4.801784308503E-05  4.202360795788E-05  3.673660153117E-05
  3.207915661808E-05  2.798135867529E-05  2.438036980373E-05  2.121980044670E-05
  1.844912655286E-05  1.602314998221E-05  1.390149995050E-05  1.204817333026E-05
  1.043111165560E-05  9.021812712817E-06  7.794974639583E-06  6.728170502596E-06
  5.801551375904E-06  4.997576000634E-06  4.300765170158E-06  3.697479052851E-06
  3.175715736885E-06  2.724929357123E-06  2.335866242605E-06  2.000417603514E-06
  1.711487358141E-06  1.462873782521E-06  1.249163747397E-06  1.065638388272E-06
  9.081891340711E-07  7.732430976156E-07  6.576969065209E-07  5.588581256051E-07
  4.743934913482E-07  4.022832449837E-07  3.407809133267E-07  2.883779453082E-07
  2.437726673335E-07  2.058430720124E-07  1.736230025494E-07  1.462813392094E-07
  1.231038348937E-07  1.034772841015E-07  8.687574356580E-08  7.284855380694E-08
  6.100993891620E-08  5.102998725071E-08  4.262683857460E-08  3.555992370551E-08
  2.962412110326E-08  2.464471124552E-08  2.047302424616E-08  1.698268914734E-08
  1.406640481224E-08  1.163316250481E-08  9.605859202835E-09  7.919248574701E-09
  6.518183474592E-09  5.356109880277E-09  4.393777508910E-09  3.598136985939E-09
  2.941397489311E-09  2.400222316139E-09  1.955042885383E-09  1.589474354093E-09
  1.289818336775E-09  1.044640221793E-09  8.444103147992E-10  6.811995414847E-10
  5.484217410444E-10  4.406157041147E-10  3.532610780890E-10  2.826230988806E-10
  2.256218292139E-10  1.797222048108E-10  1.428417248475E-10  1.132730834384E-10
  8.961943494709E-11  7.074032570369E-11  5.570661755609E-11  4.376297845685E-11
  3.429673056695E-11  2.681203004564E-11  2.090850998612E-11  1.626365229759E-11
  1.261826894744E-11  9.764570628482E-12  7.536383991386E-12  5.801149149308E-12
  4.453389002431E-12  3.409392587014E-12  2.602897456209E-12  1.981592195962E-12
  1.504290557504E-12  1.138654199769E-12  8.593624125790E-13  6.466450628314E-13
  4.851099282488E-13  3.628078067199E-13  2.704903564370E-13  2.010184644012E-13
  2.094283231454E-17  1.311209713015E-17  8.165682010042E-18  5.057880115484E-18
  3.115819010019E-18  1.908864314329E-18  1.162915655139E-18  7.044700348225E-19
  4.243150711894E-19  2.540950087046E-19  1.512708722596E-19  8.952315518333E-20
  5.266297175325E-20  3.079171685681E-20  1.789325178108E-20  1.033330741894E-20
  5.929958130285E-21  3.381373921655E-21  1.915714367292E-21  1.078277579652E-21
  6.029183508701E-22  3.348728457057E-22  1.847395034730E-22  1.012190544564E-22
  5.507467085286E-23  0.000000000000E+00  0.000000000000E+00  0.000000000000E+00
  0.000000000000E+00
</data>
</radfunc>
</valence-charge>
<pseudocore-charge matching-radius="0.711355566447"
 number-of-continuous-derivatives="4">
<annotation model-charge-form="Teter function with specified parameters" />
<radfunc>
<data npts="290">
  1.468310650985E+02  1.468191982704E+02  1.467837254570E+02  1.467245483687E+02
  1.466422797022E+02  1.465341188283E+02  1.463962916579E+02  1.462384984919E+02
  1.460425734718E+02  1.458308058263E+02  1.455921850319E+02  1.453329139375E+02
  1.450196999020E+02  1.446927321568E+02  1.443662550789E+02  1.439903921243E+02
  1.435578245770E+02  1.431480432816E+02  1.426876582854E+02  1.421706073412E+02
  1.415901521338E+02  1.410751393573E+02  1.405105844876E+02  1.398919443061E+02
  1.392143056360E+02  1.384723652439E+02  1.376604109973E+02  1.370018228133E+02
  1.362976570483E+02  1.355450206666E+02  1.347408771606E+02  1.338820459284E+02
  1.329652029348E+02  1.319868829076E+02  1.309434833535E+02  1.298312707121E+02
  1.286463890048E+02  1.273848713720E+02  1.264992811578E+02  1.255766025985E+02
  1.246155994383E+02  1.236150263018E+02  1.225736324626E+02  1.214901660881E+02
  1.203633789961E+02  1.191920319603E+02  1.179749005989E+02  1.167107818849E+02
  1.153985013129E+02  1.140369207571E+02  1.126249470561E+02  1.111615413520E+02
  1.096457292156E+02  1.080766115787E+02  1.064533764922E+02  1.047753117230E+02
  1.030418181914E+02  1.012524242440E+02  9.940680074333E+01  9.750477694381E+01
  9.554635710669E+01  9.353173778880E+01  9.146132572047E+01  8.933575616400E+01
  8.715591161937E+01  8.492294071507E+01  8.263827709142E+01  8.147709105383E+01
  8.030365805025E+01  7.911824566982E+01  7.792114270890E+01  7.671265968982E+01
  7.549312935906E+01  7.426290716205E+01  7.302237169105E+01  7.177192510308E+01
  7.051199350414E+01  6.924302729615E+01  6.796550148278E+01  6.667991593016E+01
  6.538679557847E+01  6.408669059998E+01  6.278017649952E+01  6.146785415253E+01
  6.015034977646E+01  5.882831483084E+01  5.750242584125E+01  5.617338414265E+01
  5.484191553728E+01  5.350876986254E+01  5.217472046412E+01  5.084056357000E+01
  4.950711756080E+01  4.817522213237E+01  4.684573734635E+01  4.551954256529E+01
  4.419753526845E+01  4.288062974547E+01  4.156975566498E+01  4.026585651611E+01
  3.896988792086E+01  3.768281581658E+01  3.640561450771E+01  3.513926458724E+01
  3.388475072880E+01  3.264305935131E+01  3.141517615891E+01  3.020208355992E+01
  2.900475796979E+01  2.782416700376E+01  2.666126656653E+01  2.551699784715E+01
  2.439228422873E+01  2.328802812395E+01  2.220510774858E+01  2.114437384668E+01
  2.010664638244E+01  1.909271121515E+01  1.810331677503E+01  1.713917075894E+01
  1.620093686653E+01  1.528923159838E+01  1.440462113877E+01  1.354761834712E+01
  1.271867988247E+01  1.191820348668E+01  1.114652545214E+01  1.040391830043E+01
  9.690588698258E+00  9.006675637095E+00  8.352248902270E+00  7.727307856782E+00
  7.131780563849E+00  6.565523270940E+00  6.028320276185E+00  5.519884195976E+00
  5.039856649980E+00  4.587809376912E+00  4.163245791076E+00  3.765602985971E+00
  3.394254187247E+00  3.048511652812E+00  2.727630013257E+00  2.430810040700E+00
  2.157202828981E+00  1.905914362742E+00  1.676010447463E+00  1.466521967022E+00
  1.276450429945E+00  1.104773760240E+00  9.504522837263E-01  8.124348561589E-01
  6.896650753036E-01  5.810875156101E-01  4.856539212907E-01  4.023292916290E-01
  3.300977912688E-01  2.679684181846E-01  2.149803630886E-01  1.702079962479E-01
  1.327654211175E-01  1.018105388571E-01  7.654857369031E-02  5.623501614613E-02
  4.017794942346E-02  2.773973334175E-02  1.833803044423E-02  1.144616963172E-02
  6.592854019991E-03  3.361231292808E-03  1.387356403116E-03  3.580877689000E-04
  8.468817816386E-06  1.186565477550E-04  5.104673848592E-04  1.043617745283E-03
  1.611742076482E-03  2.138274539307E-03  2.572281713390E-03  2.884332644891E-03
  3.062489156914E-03  3.108493635998E-03  3.034223603934E-03  2.858472479985E-03
  2.604104317020E-03  2.295617319523E-03  1.957137056533E-03  1.610845960916E-03
  1.275841490654E-03  9.674017691360E-04  6.966251647359E-04  4.703996272650E-04
  2.916491216212E-04  1.597985513554E-04  7.139539935183E-05  2.082605002275E-05
  1.067371981418E-06  4.419454163393E-06  2.317307369419E-05  5.017506412296E-05
  7.926566542258E-05  1.055735050541E-04  1.256653698426E-04  1.375586692735E-04
  1.406137992353E-04  1.353309262116E-04  1.230806027022E-04  1.057998508320E-04
  8.568487073925E-05  6.490851268614E-05  4.538546879937E-05  2.860133957313E-05
  1.551399106606E-05  6.527693390564E-06  1.533176264562E-06  6.415217134292E-10
  1.108486648935E-06  3.888373199275E-06  7.367439397000E-06  1.069077620381E-05
  1.321139001162E-05  1.454019345531E-05  1.455439599359E-05  1.336825714529E-05
  1.127481309520E-05  8.670325501314E-06  5.974478437630E-06  3.558679050453E-06
  1.692392071691E-06  5.137026744863E-07  2.588833690139E-08  0.000000000000E+00
  0.000000000000E+00  0.000000000000E+00  0.000000000000E+00  0.000000000000E+00
  0.000000000000E+00  0.000000000000E+00  0.000000000000E+00  0.000000000000E+00
  0.000000000000E+00  0.000000000000E+00  0.000000000000E+00  0.000000000000E+00
  0.000000000000E+00  0.000000000000E+00  0.000000000000E+00  0.000000000000E+00
  0.000000000000E+00  0.000000000000E+00  0.000000000000E+00  0.000000000000E+00
  0.000000000000E+00  0.000000000000E+00  0.000000000000E+00  0.000000000000E+00
  0.000000000000E+00  0.000000000000E+00  0.000000000000E+00  0.000000000000E+00
  0.000000000000E+00  0.000000000000E+00  0.000000000000E+00  0.000000000000E+00
  0.000000000000E+00  0.000000000000E+00  0.000000000000E+00  0.000000000000E+00
  0.000000000000E+00  0.000000000000E+00  0.000000000000E+00  0.000000000000E+00
  0.000000000000E+00  0.000000000000E+00  0.000000000000E+00  0.000000000000E+00
  0.000000000000E+00  0.000000000000E+00  0.000000000000E+00  0.000000000000E+00
  0.000000000000E+00  0.000000000000E+00  0.000000000000E+00  0.000000000000E+00
  0.000000000000E+00  0.000000000000E+00  0.000000000000E+00  0.000000000000E+00
  0.000000000000E+00  0.000000000000E+00
</data>
</radfunc>
</pseudocore-charge>
<semilocal-potentials set="scalar_relativistic">
<slps n="5" l="s" rc="1.56314965651" eref="-2.24485956616">
<radfunc>
<data npts="290">
  4.257492095641E+01  4.253064283260E+01  4.239857500760E+01  4.217921966693E+01
  4.187625820233E+01  4.148142637932E+01  4.098394262576E+01  4.042201299100E+01
  3.973536110629E+01  3.900663240407E+01  3.820175902340E+01  3.734616053302E+01
  3.633792629033E+01  3.531391375017E+01  3.431930628920E+01  3.320726991500E+01
  3.196920681103E+01  3.083556605342E+01  2.960511916116E+01  2.827481278655E+01
  2.684261125841E+01  2.562289970260E+01  2.433767941798E+01  2.298785040434E+01
  2.157502257718E+01  2.010155948964E+01  1.857060748312E+01  1.738700723490E+01
  1.617522379338E+01  1.493745373562E+01  1.367612591467E+01  1.239388691836E+01
  1.109358256198E+01  9.778235624787E+00  8.451020163324E+00  7.115232852216E+00
  5.774261910865E+00  4.431554265953E+00  3.537165457592E+00  2.644575736447E+00
  1.754806550452E+00  8.688686654657E-01 -1.224206732879E-02 -8.875487637346E-01
 -1.756097337215E+00 -2.616960069394E+00 -3.469238885184E+00 -4.312068301065E+00
 -5.144618019113E+00 -5.966095143708E+00 -6.775746002337E+00 -7.572857556493E+00
 -8.356758393376E+00 -9.126819293714E+00 -9.882453375759E+00 -1.062311582019E+01
 -1.134830318542E+01 -1.205755232784E+01 -1.275043894638E+01 -1.342657577668E+01
 -1.408561046574E+01 -1.472722316436E+01 -1.535112388177E+01 -1.595704965356E+01
 -1.654476158122E+01 -1.711404180702E+01 -1.766469049174E+01 -1.793296975431E+01
 -1.819652286200E+01 -1.845532860889E+01 -1.870936638714E+01 -1.895861610879E+01
 -1.920305813067E+01 -1.944267318228E+01 -1.967744229624E+01 -1.990734674082E+01
 -2.013236795389E+01 -2.035248747743E+01 -2.056768689158E+01 -2.077794774745E+01
 -2.098325149728E+01 -2.118357942141E+01 -2.137891255081E+01 -2.156923158506E+01
 -2.175451680509E+01 -2.193474798134E+01 -2.210990427766E+01 -2.227996415233E+01
 -2.244490525802E+01 -2.260470434258E+01 -2.275933715354E+01 -2.290877834880E+01
 -2.305300141651E+01 -2.319197860667E+01 -2.332568087688E+01 -2.345407785394E+01
 -2.357713781266E+01 -2.369482767242E+01 -2.380711301140E+01 -2.391395809815E+01
 -2.401532593959E+01 -2.411117834477E+01 -2.420147600387E+01 -2.428617858248E+01
 -2.436524483216E+01 -2.443863271895E+01 -2.450629957312E+01 -2.456820226392E+01
 -2.462429740449E+01 -2.467454159216E+01 -2.471889169000E+01 -2.475730515451E+01
 -2.478974041353E+01 -2.481615729654E+01 -2.483651751686E+01 -2.485078520223E+01
 -2.485892746646E+01 -2.486091501118E+01 -2.485672274269E+01 -2.484633038570E+01
 -2.482972307299E+01 -2.480689188888E+01 -2.477783434409E+01 -2.474255476136E+01
 -2.470106455436E+01 -2.465338238716E+01 -2.459953420687E+01 -2.453955314889E+01
 -2.447347931992E+01 -2.440135947002E+01 -2.432324656918E+01 -2.423919930714E+01
 -2.414928153657E+01 -2.405356167921E+01 -2.395211211326E+01 -2.384500855712E+01
 -2.373232946180E+01 -2.361415542071E+01 -2.349056860310E+01 -2.336165221554E+01
 -2.322748999556E+01 -2.308816574251E+01 -2.294376289354E+01 -2.279436415705E+01
 -2.264005122159E+01 -2.248090456522E+01 -2.231700339860E+01 -2.214842578243E+01