<?xml version="1.0" encoding="UTF-8" ?>
<psml version="1.1" energy_unit="hartree" length_unit="bohr"
 uuid="a6d0fc60-1d60-11e8-627c-28b9fce78e71"
 xmlns="http://esl.cecam.org/PSML/ns/1.1">
<provenance creator="ONCVPSP-3.3.0+psml-3.3.0-73 (scalar-relativistic)"
 date="2018-03-01">
<annotation action="semilocal-pseudopotential-generation"
 action-cont="projectors-generation" />
<input-file name="oncvpsp-input">
<![CDATA[# atsym z nc nv iexc psfile
Hf 72 10 4 -116133 upf
# n l f
1 0 2.0
2 0 2.0
2 1 6.0
3 0 2.0
3 1 6.0
3 2 10.0
4 0 2.0
4 1 6.0
4 2 10.0
4 3 14.0
5 0 2.0
5 1 6.0
5 2 2.0
6 0 2.0
# lmax
3
# l rc ep ncon nbas qcut
0 1.7 0.0 4 8 7.0
1 1.7 0.0 4 8 7.4
2 1.7 0.0 4 9 6.6
3 2.4 0.5 4 8 6.8
# lloc lpopt rc5 dvloc0
4 5 1.7 0.0
# l nproj debl
0 2 2.0
1 2 1.5
2 2 1.8
3 2 2.5
# icmod fcfact rcfact
3 5.4 1.36
# epsh1 epsh2 depsh
-12.0 12.0 0.02
# rlmax drl
6.0 0.01
 0
]]>
</input-file>
</provenance>
<pseudo-atom-spec atomic-label="Hf" atomic-number="72" z-pseudo="12"
 flavor="Hamann&apos;s oncvpsp" relativity="scalar" spin-dft="no"
 core-corrections="yes">
<annotation pseudo-energy="-49.8443038659" />
<exchange-correlation>
<annotation oncvpsp-xc-code="-116133" oncvpsp-xc-type="libxc-interface" />
<libxc-info number-of-functionals="2">
<functional name="Perdew, Burke &amp; Ernzerhof SOL (GGA)" type="exchange"
 id="116" />
<functional name="Perdew, Burke &amp; Ernzerhof SOL (GGA)" type="correlation"
 id="133" />
</libxc-info>
</exchange-correlation>
<valence-configuration total-valence-charge="12">
<shell n="5" l="s" occupation="2" />
<shell n="5" l="p" occupation="6" />
<shell n="5" l="d" occupation="2" />
<shell n="6" l="s" occupation="2" />
</valence-configuration>
</pseudo-atom-spec>
<grid npts="457">
<annotation type="sampled from oncvpsp log grid"
 recipe="r(i:1..N) = r1*exp(a*(i-1)) + r=0; resampled"
 recipe-cont="r1: scale; a: step" scale="0.694444444444E-05"
 step="0.119285708653E-01" delta="0.500000000000E-02" rmax="44.0200392416" />
<grid-data>
  0.000000000000E+00  5.026670407229E-03  1.004037965951E-02  1.506217053265E-02
  2.029552887432E-02  2.545834165589E-02  3.081188800123E-02  3.598031598865E-02
  4.102519090483E-02  4.622274527913E-02  5.146125203343E-02  5.661407921772E-02
  6.228286019135E-02  6.770677621320E-02  7.273027184416E-02  7.812648509314E-02
  8.392306969631E-02  8.908076201112E-02  9.455543260272E-02  1.003665621267E-01
  1.065348284690E-01  1.117412849051E-01  1.172021857236E-01  1.229299658586E-01
  1.289376679513E-01  1.352389720489E-01  1.418482267551E-01  1.470162864660E-01
  1.523726378587E-01  1.579241411011E-01  1.636779063026E-01  1.696413026204E-01
  1.758219676977E-01  1.822278174452E-01  1.888670561800E-01  1.957481871331E-01
  2.028800233396E-01  2.102716989265E-01  2.153484988254E-01  2.205478729811E-01
  2.258727808263E-01  2.313262532466E-01  2.369113943050E-01  2.426313830091E-01
  2.484894751204E-01  2.544890050078E-01  2.606333875447E-01  2.669261200535E-01
  2.733707842961E-01  2.799710485122E-01  2.867306695074E-01  2.936534947920E-01
  3.007434647703E-01  3.080046149837E-01  3.154410784079E-01  3.230570878049E-01
  3.308569781329E-01  3.388451890129E-01  3.470262672565E-01  3.554048694531E-01
  3.639857646212E-01  3.727738369222E-01  3.817740884408E-01  3.909916420322E-01
  4.004317442374E-01  4.100997682703E-01  4.200012170754E-01  4.250412316803E-01
  4.301417264604E-01  4.353034271780E-01  4.405270683041E-01  4.458133931238E-01
  4.511631538412E-01  4.565771116873E-01  4.620560370276E-01  4.676007094719E-01
  4.732119179856E-01  4.788904610014E-01  4.846371465334E-01  4.904527922918E-01
  4.963382257993E-01  5.022942845089E-01  5.083218159230E-01  5.144216777141E-01
  5.205947378467E-01  5.268418747008E-01  5.331639771972E-01  5.395619449236E-01
  5.460366882627E-01  5.525891285218E-01  5.592201980641E-01  5.659308404409E-01
  5.727220105262E-01  5.795946746525E-01  5.865498107483E-01  5.935884084773E-01
  6.007114693790E-01  6.079200070116E-01  6.152150470957E-01  6.225976276608E-01
  6.300687991928E-01  6.376296247831E-01  6.452811802805E-01  6.530245544439E-01
  6.608608490972E-01  6.687911792863E-01  6.768166734378E-01  6.849384735190E-01
  6.931577352013E-01  7.014756280237E-01  7.098933355600E-01  7.184120555867E-01
  7.270330002537E-01  7.357573962568E-01  7.445864850118E-01  7.535215228320E-01
  7.625637811060E-01  7.717145464792E-01  7.809751210370E-01  7.903468224894E-01
  7.998309843593E-01  8.094289561716E-01  8.191421036457E-01  8.289718088894E-01
  8.389194705961E-01  8.489865042433E-01  8.591743422942E-01  8.694844344017E-01
  8.799182476145E-01  8.904772665859E-01  9.011629937849E-01  9.119769497104E-01
  9.229206731069E-01  9.339957211842E-01  9.452036698384E-01  9.565461138764E-01
  9.680246672429E-01  9.796409632499E-01  9.913966548089E-01  1.003293414667E+00
  1.015332935643E+00  1.027516930870E+00  1.039847134041E+00  1.052325299649E+00
  1.064953203245E+00  1.077732641684E+00  1.090665433384E+00  1.103753418585E+00
  1.116998459608E+00  1.130402441123E+00  1.143967270417E+00  1.157694877662E+00
  1.171587216193E+00  1.185646262788E+00  1.199874017941E+00  1.214272506157E+00
  1.228843776230E+00  1.243589901545E+00  1.258512980364E+00  1.273615136128E+00
  1.288898517762E+00  1.304365299975E+00  1.320017683574E+00  1.335857895777E+00
  1.351888190527E+00  1.368110848813E+00  1.384528178999E+00  1.401142517147E+00
  1.417956227353E+00  1.434971702081E+00  1.452191362506E+00  1.469617658856E+00
  1.487253070762E+00  1.505100107611E+00  1.523161308903E+00  1.541439244609E+00
  1.559936515545E+00  1.578655753731E+00  1.597599622776E+00  1.616770818249E+00
  1.636172068068E+00  1.655806132885E+00  1.675675806480E+00  1.695783916157E+00
  1.716133323151E+00  1.736726923029E+00  1.757567646106E+00  1.778658457859E+00
  1.800002359353E+00  1.821602387665E+00  1.843461616317E+00  1.865583155713E+00
  1.887970153582E+00  1.910625795425E+00  1.933553304970E+00  1.956755944629E+00
  1.980237015965E+00  2.003999860157E+00  2.028047858478E+00  2.052384432780E+00
  2.077013045974E+00  2.101937202525E+00  2.127160448956E+00  2.152686374343E+00
  2.178518610835E+00  2.204660834165E+00  2.231116764175E+00  2.257890165345E+00
  2.284984847329E+00  2.312404665497E+00  2.340153521483E+00  2.368235363741E+00
  2.396654188106E+00  2.425414038363E+00  2.454519006824E+00  2.483973234905E+00
  2.513780913724E+00  2.543946284689E+00  2.574473640105E+00  2.605367323787E+00
  2.636631731672E+00  2.668271312452E+00  2.700290568202E+00  2.732694055020E+00
  2.765486383680E+00  2.798672220284E+00  2.832256286928E+00  2.866243362371E+00
  2.900638282719E+00  2.935445942112E+00  2.970671293417E+00  3.006319348938E+00
  3.042395181126E+00  3.078903923299E+00  3.115850770379E+00  3.153240979623E+00
  3.191079871379E+00  3.229372829835E+00  3.268125303793E+00  3.307342807439E+00
  3.347030921128E+00  3.387195292182E+00  3.427841635688E+00  3.468975735316E+00
  3.510603444140E+00  3.552730685469E+00  3.595363453695E+00  3.638507815139E+00
  3.682169908921E+00  3.726355947828E+00  3.771072219202E+00  3.816325085833E+00
  3.862120986863E+00  3.908466438705E+00  3.955368035969E+00  4.002832452401E+00
  4.050866441830E+00  4.099476839132E+00  4.148670561201E+00  4.198454607936E+00
  4.248836063231E+00  4.299822095990E+00  4.351419961142E+00  4.403637000675E+00
  4.456480644683E+00  4.509958412420E+00  4.564077913369E+00  4.618846848329E+00
  4.674273010509E+00  4.730364286635E+00  4.787128658075E+00  4.844574201972E+00
  4.902709092395E+00  4.961541601504E+00  5.021080100722E+00  5.081333061931E+00
  5.142309058674E+00  5.204016767378E+00  5.266464968587E+00  5.329662548210E+00
  5.393618498788E+00  5.458341920774E+00  5.523842023823E+00  5.590128128109E+00
  5.657209665646E+00  5.725096181634E+00  5.793797335813E+00  5.863322903843E+00
  5.933682778689E+00  6.004886972034E+00  6.076945615698E+00  6.149868963086E+00
  6.223667390643E+00  6.298351399331E+00  6.373931616123E+00  6.450418795517E+00
  6.527823821063E+00  6.606157706915E+00  6.685431599398E+00  6.765656778591E+00
  6.846844659934E+00  6.929006795854E+00  7.012154877404E+00  7.096300735933E+00
  7.181456344764E+00  7.267633820901E+00  7.354845426752E+00  7.443103571873E+00
  7.532420814735E+00  7.622809864512E+00  7.714283582886E+00  7.806854985881E+00
  7.900537245711E+00  7.995343692660E+00  8.091287816972E+00  8.188383270776E+00
  8.286643870025E+00  8.386083596465E+00  8.486716599623E+00  8.588557198818E+00
  8.691619885204E+00  8.795919323827E+00  8.901470355712E+00  9.008287999981E+00
  9.116387455981E+00  9.225784105453E+00  9.336493514718E+00  9.448531436895E+00
  9.561913814137E+00  9.676656779907E+00  9.792776661266E+00  9.910289981201E+00
  1.002921346098E+01  1.014956402251E+01  1.027135879078E+01  1.039461509627E+01
  1.051935047742E+01  1.064558268315E+01  1.077332967535E+01  1.090260963145E+01
  1.103344094703E+01  1.116584223839E+01  1.129983234526E+01  1.143543033340E+01
  1.157265549740E+01  1.171152736337E+01  1.185206569173E+01  1.199429048003E+01
  1.213822196579E+01  1.228388062938E+01  1.243128719693E+01  1.258046264329E+01
  1.273142819501E+01  1.288420533335E+01  1.303881579735E+01  1.319528158692E+01
  1.335362496597E+01  1.351386846556E+01  1.367603488714E+01  1.384014730579E+01
  1.400622907346E+01  1.417430382234E+01  1.434439546821E+01  1.451652821383E+01
  1.469072655239E+01  1.486701527102E+01  1.504541945427E+01  1.522596448773E+01
  1.540867606158E+01  1.559358017432E+01  1.578070313641E+01  1.597007157405E+01
  1.616171243293E+01  1.635565298213E+01  1.655192081792E+01  1.675054386773E+01
  1.695155039414E+01  1.715496899887E+01  1.736082862686E+01  1.756915857038E+01
  1.777998847323E+01  1.799334833491E+01  1.820926851492E+01  1.842777973710E+01
  1.864891309395E+01  1.887270005108E+01  1.909917245169E+01  1.932836252111E+01
  1.956030287136E+01  1.979502650582E+01  2.003256682389E+01  2.027295762577E+01
  2.051623311728E+01  2.076242791469E+01  2.101157704967E+01  2.126371597426E+01
  2.151888056596E+01  2.177710713275E+01  2.203843241834E+01  2.230289360736E+01
  2.257052833065E+01  2.284137467062E+01  2.311547116666E+01  2.339285682066E+01
  2.367357110251E+01  2.395765395574E+01  2.424514580321E+01  2.453608755285E+01
  2.483052060348E+01  2.512848685072E+01  2.543002869293E+01  2.573518903725E+01
  2.604401130570E+01  2.635653944136E+01  2.667281791466E+01  2.699289172964E+01
  2.731680643039E+01  2.764460810756E+01  2.797634340485E+01  2.831205952571E+01
  2.865180424001E+01  2.899562589089E+01  2.934357340158E+01  2.969569628240E+01
  3.005204463779E+01  3.041266917345E+01  3.077762120353E+01  3.114695265797E+01
  3.152071608987E+01  3.189896468294E+01  3.228175225914E+01  3.266913328625E+01
  3.306116288568E+01  3.345789684031E+01  3.385939160240E+01  3.426570430162E+01
  3.467689275324E+01  3.509301546628E+01  3.551413165188E+01  3.594030123170E+01
  3.637158484648E+01  3.680804386464E+01  3.724974039101E+01  3.769673727571E+01
  3.814909812302E+01  3.860688730049E+01  3.907016994810E+01  3.953901198747E+01
  4.001348013132E+01  4.049364189290E+01  4.097956559561E+01  4.147132038276E+01
  4.196897622736E+01  4.247260394208E+01  4.298227518939E+01  4.349806249166E+01
  4.402003924156E+01
</grid-data>
</grid>
<valence-charge total-charge="12" is-unscreening-charge="yes"
 rescaled-to-z-pseudo="no">
<radfunc>
<data npts="457">
  1.320527375781E+00  1.321004226574E+00  1.322429825298E+00  1.324808668301E+00
  1.328300249408E+00  1.332757108404E+00  1.338440136690E+00  1.344951577478E+00
  1.352277946019E+00  1.360828268693E+00  1.370474486589E+00  1.380969523587E+00
  1.393667628548E+00  1.406946127178E+00  1.420227963293E+00  1.435547751804E+00
  1.453216991918E+00  1.469993263346E+00  1.488885152755E+00  1.510157828321E+00
  1.534109187070E+00  1.555422372801E+00  1.578853099839E+00  1.604609513680E+00
  1.632919654613E+00  1.664033209302E+00  1.698223374245E+00  1.726063679822E+00
  1.755938091911E+00  1.787991902618E+00  1.822380139694E+00  1.859268088344E+00
  1.898831812280E+00  1.941258666113E+00  1.986747789072E+00  2.035510567464E+00
  2.087771050199E+00  2.143766298019E+00  2.183294402013E+00  2.224670866033E+00
  2.267975826663E+00  2.313292061472E+00  2.360704957043E+00  2.410302455370E+00
  2.462174975146E+00  2.516415304094E+00  2.573118457989E+00  2.632381501541E+00
  2.694303325746E+00  2.758984375722E+00  2.826526322419E+00  2.897031670903E+00
  2.970603297200E+00  3.047343904944E+00  3.127355392293E+00  3.210738118767E+00
  3.297590060902E+00  3.388005844795E+00  3.482075642914E+00  3.579883921840E+00
  3.681508027072E+00  3.787016590588E+00  3.896467746651E+00  4.009907141390E+00
  4.127365722087E+00  4.248857292917E+00  4.374375825235E+00  4.438637175558E+00
  4.503892512489E+00  4.570134149920E+00  4.637352562629E+00  4.705536271481E+00
  4.774671724528E+00  4.844743174057E+00  4.915732549696E+00  4.987619327694E+00
  5.060380396554E+00  5.133989919192E+00  5.208419191907E+00  5.283636500401E+00
  5.359606973229E+00  5.436292433038E+00  5.513651246060E+00  5.591638170364E+00
  5.670204203426E+00  5.749296429684E+00  5.828857868768E+00  5.908827325218E+00
  5.989139240554E+00  6.069723548655E+00  6.150505535504E+00  6.231405704435E+00
  6.312339648106E+00  6.393217928541E+00  6.473945966664E+00  6.554423942848E+00
  6.634546710113E+00  6.714203721679E+00  6.793278974726E+00  6.871650972229E+00
  6.949192704911E+00  7.025771655359E+00  7.101249826481E+00  7.175483796511E+00
  7.248324802829E+00  7.319618856914E+00  7.389206892735E+00  7.456924950939E+00
  7.522604401108E+00  7.586072204386E+00  7.647151218640E+00  7.705660548257E+00
  7.761415940539E+00  7.814230230471E+00  7.863913835449E+00  7.910275301292E+00
  7.953121900576E+00  7.992260283985E+00  8.027497184996E+00  8.058640177772E+00
  8.085498487661E+00  8.107883853169E+00  8.125611437687E+00  8.138500788637E+00
  8.146376841024E+00  8.149070961669E+00  8.146422029666E+00  8.138277547815E+00
  8.124494779008E+00  8.104941900698E+00  8.079499169831E+00  8.048060089753E+00
  8.010532569882E+00  7.966840068156E+00  7.916922705586E+00  7.860738341653E+00
  7.798263598695E+00  7.729494823069E+00  7.654448970501E+00  7.573164402910E+00
  7.485701583967E+00  7.392143660792E+00  7.292596919551E+00  7.187191103251E+00
  7.076079580755E+00  6.959439357003E+00  6.837470915577E+00  6.710397886110E+00
  6.578466530576E+00  6.441945044281E+00  6.301122669223E+00  6.156308619555E+00
  6.007830821047E+00  5.856034468630E+00  5.701280408416E+00  5.543943352814E+00
  5.384409939647E+00  5.223076648274E+00  5.060347587806E+00  4.896632174383E+00
  4.732342716184E+00  4.567891926347E+00  4.403690385286E+00  4.240143974897E+00
  4.077651307988E+00  3.916601176856E+00  3.757370045250E+00  3.600319608171E+00
  3.445794443896E+00  3.294119782436E+00  3.145599414296E+00  3.000513762938E+00
  2.859118143728E+00  2.721641231403E+00  2.588283757158E+00  2.459217455317E+00
  2.334584278159E+00  2.214495895732E+00  2.099033495385E+00  1.988247893155E+00
  1.882159966105E+00  1.780761411018E+00  1.684015830732E+00  1.591860144631E+00
  1.504206314635E+00  1.420944259965E+00  1.341948513209E+00  1.267086902988E+00
  1.196221811972E+00  1.129211291035E+00  1.065910144198E+00  1.006170926605E+00
  9.498448724397E-01  8.967827517714E-01  8.468356565411E-01  7.998557165410E-01
  7.556967466492E-01  7.142148269676E-01  6.752688178705E-01  6.387208122875E-01
  6.044365278214E-01  5.722856415382E-01  5.421420704648E-01  5.138842009874E-01
  4.873950704600E-01  4.625625044084E-01  4.392792127471E-01  4.174428484200E-01
  3.969560318278E-01  3.777263443163E-01  3.596662938857E-01  3.426932561312E-01
  3.267293932594E-01  3.117015538494E-01  2.975411558426E-01  2.841840550698E-01
  2.715704014578E-01  2.596444849036E-01  2.483545726703E-01  2.376527400374E-01
  2.274946958313E-01  2.178396043640E-01  2.086499052126E-01  1.998911321737E-01
  1.915317326811E-01  1.835428887447E-01  1.758983405357E-01  1.685742135096E-01
  1.615488498925E-01  1.548026452353E-01  1.483178906307E-01  1.420786210773E-01
  1.360704703748E-01  1.302805328372E-01  1.246972320242E-01  1.193101966115E-01
  1.141101434510E-01  1.090887678088E-01  1.042386407166E-01  9.955311332571E-02
  9.502622811248E-02  9.065263675278E-02  8.642752445557E-02  8.234654052282E-02
  7.840573488629E-02  7.460150035710E-02  7.093052031448E-02  6.738972155210E-02
  6.397623199610E-02  6.068734300676E-02  5.752047597516E-02  5.447315292840E-02
  5.154297086007E-02  4.872757950790E-02  4.602466230716E-02  4.343192025627E-02
  4.094705844070E-02  3.856777497199E-02  3.629175211078E-02  3.411664935623E-02
  3.204009829858E-02  3.005969904690E-02  2.817301806036E-02  2.637758721977E-02
  2.467090404171E-02  2.305043282848E-02  2.151360672835E-02  2.005783056987E-02
  1.868048439325E-02  1.737892760213E-02  1.615050366490E-02  1.499254529714E-02
  1.390238005697E-02  1.287733628340E-02  1.191474930402E-02  1.101196783456E-02
  1.016636048859E-02  9.375322312749E-03  8.636281260812E-03  7.946704520685E-03
  7.304104610745E-03  6.706045167019E-03  6.150146349856E-03  5.634089807801E-03
  5.155623146980E-03  4.712563865822E-03  4.302802727007E-03  3.924306550516E-03
  3.575120423248E-03  3.253369331368E-03  2.957259231200E-03  2.685077582790E-03
  2.435193377177E-03  2.206056693896E-03  1.996197829248E-03  1.804226038613E-03
  1.628827937536E-03  1.468765606653E-03  1.322874445096E-03  1.190060815170E-03
  1.069299520015E-03  9.596311538427E-04  8.601593463850E-04  7.700480032552E-04
  6.885183583496E-04  6.148462659469E-04  5.483594548716E-04  4.884343554099E-04
  4.344935788866E-04  3.860034915068E-04  3.424713984949E-04  3.034429964575E-04
  2.685000163640E-04  2.372579096365E-04  2.093636263351E-04  1.844934969733E-04
  1.623512149039E-04  1.426659188884E-04  1.251903744969E-04  1.096992524292E-04
  9.598750141646E-05  8.386881305848E-05  7.317417573472E-05  6.375051458787E-05
  5.545941449242E-05  4.817592287819E-05  4.178742926366E-05  3.619261835884E-05
  3.130049361546E-05  2.702946812711E-05  2.330651981227E-05  2.006640784569E-05
  1.725094733918E-05  1.480833930986E-05  1.269255301509E-05  1.086275777721E-05
  9.282801470529E-06  7.920732897346E-06  6.748365340740E-06  5.740878648680E-06
  4.876457278066E-06  4.135961807629E-06  3.502631515235E-06  2.961815707516E-06
  2.500731587049E-06  2.108246543860E-06  1.774682862818E-06  1.491642945573E-06
  1.251853254165E-06  1.049025292232E-06  8.777320480845E-07  7.332984308218E-07
  6.117043354695E-07  5.094990750971E-07  4.237260164265E-07  3.518563501203E-07
  2.917310173142E-07  2.415098997548E-07  1.996274618979E-07  1.647541093913E-07
  1.357625994490E-07  1.116989047356E-07  9.175699357857E-08  7.525704573523E-08
  6.162667470863E-08  5.038477492087E-08  4.112765512614E-08  3.351715850644E-08
  2.727050518388E-08  2.215162465253E-08  1.796377413106E-08  1.454326431469E-08
  1.175413670467E-08  9.483656854469E-09  7.638505719515E-09  6.141567050023E-09
  4.929222626875E-09  3.949079300997E-09  3.158062434356E-09  2.520819620376E-09
  2.008386634232E-09  1.597074567131E-09  1.267543158924E-09  1.004030573692E-09
  7.937143655577E-10  6.261822485084E-10  4.929945962936E-10  3.873234291224E-10
  3.036550573576E-10  2.375456054214E-10  1.854203816172E-10  1.444095352230E-10
  1.122136891846E-10  8.699428820847E-11  6.728428682148E-11  5.191554490769E-11
  3.995992081163E-11  3.068157275781E-11  2.349841388927E-11  1.795102819367E-11
  1.367765549318E-11  1.039410333054E-11  7.877650310737E-12  5.954176299354E-12
  4.487895786516E-12  3.373186711161E-12  2.528102322179E-12  1.889231766566E-12
  1.407639002350E-12  1.045661810025E-12  7.743951826968E-13  5.717179437556E-13
  4.207493339575E-13  3.086460087963E-13  2.256634660965E-13  1.285697369786E-15
  8.433376748905E-16  5.505419621210E-16  3.576684809419E-16  2.312315409285E-16
  1.487524642162E-16  9.521517732388E-17  6.063830018025E-17  3.842025798939E-17
  2.421693792560E-17  1.518437159655E-17  9.470342441526E-18  5.874867795749E-18
  3.624649549061E-18  2.224032215419E-18  1.357045854694E-18  8.233742767196E-19
  4.967295126556E-19  2.979426989024E-19  1.776664822899E-19  1.053192422782E-19
  6.205953816215E-20  3.634767997082E-20  2.115829016482E-20  1.224018975190E-20
  7.036667745304E-21  4.019615065365E-21  2.281430409475E-21  1.286476152200E-21
  7.206659634870E-22  4.010233199348E-22  2.216530722196E-22  1.216777363248E-22
  6.633549955534E-23  3.591221533378E-23  1.930469611366E-23  1.030316951508E-23
  5.459196754373E-24  0.000000000000E+00  0.000000000000E+00  0.000000000000E+00
  0.000000000000E+00
</data>
</radfunc>
</valence-charge>
<pseudocore-charge matching-radius="1.02751693087"
 number-of-continuous-derivatives="4">
<annotation model-charge-form="Teter function with specified parameters" />
<radfunc>
<data npts="290">
  4.055666709866E+01  4.055500914053E+01  4.055005273366E+01  4.054178303447E+01
  4.052964704018E+01  4.051415935518E+01  4.049441623862E+01  4.047180277974E+01
  4.044636884671E+01  4.041669878205E+01  4.038324250533E+01  4.034686213059E+01
  4.030287250299E+01  4.025690427691E+01  4.021095702809E+01  4.015799977014E+01
  4.009697383390E+01  4.003908396398E+01  3.997395368853E+01  3.990069080020E+01
  3.981829674385E+01  3.974506098484E+01  3.966463781980E+01  3.957633789781E+01
  3.947940911663E+01  3.937303162465E+01  3.925631258155E+01  3.916140547609E+01
  3.905969609542E+01  3.895071594805E+01  3.883396720471E+01  3.870892132076E+01
  3.857501767117E+01  3.843166221472E+01  3.827822620728E+01  3.811404498771E+01
  3.793841686419E+01  3.775060213330E+01  3.761823913551E+01  3.747987427809E+01
  3.733525932886E+01  3.718413818899E+01  3.702624689837E+01  3.686131367486E+01
  3.668905899156E+01  3.650919569671E+01  3.632142918121E+01  3.612545759899E+01
  3.592097214611E+01  3.570765740456E+01  3.548519175752E+01  3.525324788288E+01
  3.501149333259E+01  3.475959120567E+01  3.449720092301E+01  3.422397911286E+01
  3.393958061581E+01  3.364365961883E+01  3.333587092783E+01  3.301587138883E+01
  3.268332146762E+01  3.233788699799E+01  3.197924110863E+01  3.160706633829E+01
  3.122105694879E+01  3.082092144453E+01  3.040638530655E+01  3.019363657749E+01
  2.997719394804E+01  2.975702923134E+01  2.953311589672E+01  2.930542918176E+01
  2.907394620805E+01  2.883864610056E+01  2.859951011064E+01  2.835652174249E+01
  2.810966688326E+01  2.785893393654E+01  2.760431395921E+01  2.734580080160E+01
  2.708339125074E+01  2.681708517667E+01  2.654688568164E+01  2.627279925186E+01
  2.599483591184E+01  2.571300938094E+01  2.542733723184E+01  2.513784105078E+01
  2.484454659918E+01  2.454748397621E+01  2.424668778212E+01  2.394219728177E+01
  2.363405656795E+01  2.332231472402E+01  2.300702598538E+01  2.268824989907E+01
  2.236605148112E+01  2.204050137083E+01  2.171167598129E+01  2.137965764558E+01
  2.104453475771E+01  2.070640190755E+01  2.036536000886E+01  2.002151641960E+01
  1.967498505347E+01  1.932588648171E+01  1.897434802423E+01  1.862050382880E+01
  1.826449493740E+01  1.790646933848E+01  1.754658200385E+01  1.718499490920E+01
  1.682187703688E+01  1.645740435964E+01  1.609175980415E+01  1.572513319300E+01
  1.535772116374E+01  1.498972706394E+01  1.462136082063E+01  1.425283878325E+01
  1.388438353850E+01  1.351622369617E+01  1.314859364465E+01  1.278173327511E+01
  1.241588767328E+01  1.205130677796E+01  1.168824500542E+01  1.132696083901E+01
  1.096771638338E+01  1.061077688295E+01  1.025641020432E+01  9.904886282697E+00
  9.556476532311E+00  9.211453221369E+00  8.870088812062E+00  8.532655266552E+00
  8.199423320094E+00  7.870661722751E+00  7.546636451477E+00  7.227609894682E+00
  6.913840011716E+00  6.605579470087E+00  6.303074763583E+00  6.006565314855E+00
  5.716282566375E+00  5.432449064107E+00  5.155277538557E+00  4.884969988293E+00
  4.621716771355E+00  4.365695710340E+00  4.117071217281E+00  3.875993444712E+00
  3.642597469620E+00  3.417002517179E+00  3.199311231363E+00  2.989608999661E+00
  2.787963339185E+00  2.594423351468E+00  2.409019253174E+00  2.231761989794E+00
  2.062642939165E+00  1.901633711306E+00  1.748686050651E+00  1.603731846214E+00
  1.466683254583E+00  1.337432939905E+00  1.215854434156E+00  1.101802620041E+00
  9.951143377846E-01  8.956091159437E-01  8.030900250718E-01  7.173446517686E-01
  6.381461892161E-01  5.652546388501E-01  4.984181163145E-01  4.373742533312E-01
  3.818516856037E-01  3.315716153953E-01  2.862494359968E-01  2.455964039621E-01
  2.093213437685E-01  1.771323684860E-01  1.487385991444E-01  1.238518648046E-01
  1.021883648920E-01  8.347027517822E-02  6.742727890617E-02  5.379800498591E-02
  4.233135594173E-02  3.278770938551E-02  2.493997822633E-02  1.857451659569E-02
  1.349186055993E-02  9.507295082159E-03  6.451241352878E-03  4.169461489903E-03
  2.523080661787E-03  1.388429854101E-03  6.567157057856E-04  2.335270173959E-04
  3.819059327270E-05  2.991941444679E-06  7.227893328938E-05  2.014687369440E-04
  3.559801063611E-04  5.101143623698E-04  6.459090853110E-04  7.519886077321E-04
  8.224348249693E-04  8.557006262147E-04  8.535864061828E-04  8.202976885833E-04
  7.615989420136E-04  6.840752844793E-04  5.945100637711E-04  4.993823948240E-04
  4.044847734712E-04  3.146570187587E-04  2.336291756100E-04  1.639627836304E-04
  1.070772213996E-04  6.334578391499E-05  3.224483202009E-05  1.253882132831E-05
  2.484290696354E-06  3.694165289489E-08  3.047703138913E-06  9.436042842760E-06
  1.733161380521E-05  2.517844064222E-05  3.179906253128E-05  3.641916164506E-05
  3.865602347172E-05  3.847652637013E-05  3.613210121109E-05  3.207914142169E-05
  2.689363513428E-05  2.118834792579E-05  1.553977822529E-05  1.043046267009E-05
  6.210194161492E-06  3.077529598413E-06  1.080817988329E-06  1.360761923916E-07
  5.755500843267E-08  5.959033405280E-07  1.478524077113E-06  2.447025419368E-06
  3.287540225194E-06  3.850985668790E-06  4.061890454284E-06  3.916024079108E-06
  3.468517112311E-06  2.815282012915E-06  2.071197551854E-06  1.348639694151E-06
  7.395372589938E-07  3.032864837648E-07  6.172266925891E-08  0.000000000000E+00
  0.000000000000E+00  0.000000000000E+00  0.000000000000E+00  0.000000000000E+00
  0.000000000000E+00  0.000000000000E+00  0.000000000000E+00  0.000000000000E+00
  0.000000000000E+00  0.000000000000E+00  0.000000000000E+00  0.000000000000E+00
  0.000000000000E+00  0.000000000000E+00  0.000000000000E+00  0.000000000000E+00
  0.000000000000E+00  0.000000000000E+00  0.000000000000E+00  0.000000000000E+00
  0.000000000000E+00  0.000000000000E+00  0.000000000000E+00  0.000000000000E+00
  0.000000000000E+00  0.000000000000E+00  0.000000000000E+00  0.000000000000E+00
  0.000000000000E+00  0.000000000000E+00
</data>
</radfunc>
</pseudocore-charge>
<semilocal-potentials set="scalar_relativistic">
<slps n="5" l="s" rc="1.71613332315" eref="-2.46372219572">
<radfunc>
<data npts="290">
 -3.023522702500E+00 -3.024787902784E+00 -3.028569054944E+00 -3.034874256951E+00
 -3.044119169581E+00 -3.055903293718E+00 -3.070902489086E+00 -3.088051063236E+00
 -3.107298712391E+00 -3.129699072887E+00 -3.154889644588E+00 -3.182200035165E+00
 -3.215109231736E+00 -3.249366685221E+00 -3.283474460694E+00 -3.322620643711E+00
 -3.367513079145E+00 -3.409884099745E+00 -3.457306763016E+00 -3.510339778647E+00
 -3.569592361629E+00 -3.621915140392E+00 -3.679003602161E+00 -3.741242280116E+00
 -3.809036855565E+00 -3.882813263923E+00 -3.963016260798E+00 -4.027663024665E+00
 -4.096384047727E+00 -4.169382907567E+00 -4.246865750533E+00 -4.329040094112E+00
 -4.416113429293E+00 -4.508291608195E+00 -4.605777003424E+00 -4.708766427410E+00
 -4.817448802406E+00 -4.932002574953E+00 -5.011715828551E+00 -5.094157327220E+00
 -5.179368404801E+00 -5.267386264554E+00 -5.358243502568E+00 -5.451967612454E+00
 -5.548580472918E+00 -5.648097820134E+00 -5.750528707114E+00 -5.855874952645E+00
 -5.964130582614E+00 -6.075281266917E+00 -6.189303755379E+00 -6.306165316435E+00
 -6.425823182544E+00 -6.548224006510E+00 -6.673303333086E+00 -6.800985090312E+00
 -6.931181105139E+00 -7.063790647863E+00 -7.198700009851E+00 -7.335782118892E+00
 -7.474896196304E+00 -7.615887459661E+00 -7.758586874651E+00 -7.902810959181E+00
 -8.048361642379E+00 -8.195026180657E+00 -8.342577132445E+00 -8.416609926188E+00
 -8.490772392684E+00 -8.565031993181E+00 -8.639355287609E+00 -8.713707940834E+00
 -8.788054729845E+00 -8.862359551862E+00 -8.936585433361E+00 -9.010694539996E+00
 -9.084648187426E+00 -9.158406853014E+00 -9.231930188402E+00 -9.305177032944E+00
 -9.378105427989E+00 -9.450672632001E+00 -9.522835136501E+00 -9.594548682841E+00
 -9.665768279782E+00 -9.736448221878E+00 -9.806542108677E+00 -9.876002864714E+00
 -9.944782760325E+00 -1.001283343327E+01 -1.008010591117E+01 -1.014655063484E+01
 -1.021211748237E+01 -1.027675579421E+01 -1.034041439908E+01 -1.040304164084E+01
 -1.046458540636E+01 -1.052499315436E+01 -1.058421194537E+01 -1.064218847274E+01
 -1.069886909488E+01 -1.075419986867E+01 -1.080812658424E+01 -1.086059480096E+01
 -1.091154988507E+01 -1.096093704858E+01 -1.100870138990E+01 -1.105478793601E+01
 -1.109914168638E+01 -1.114170765864E+01 -1.118243093612E+01 -1.122125671716E+01
 -1.125813036653E+01 -1.129299746862E+01 -1.132580388281E+01 -1.135649580065E+01
 -1.138501980517E+01 -1.141132293204E+01 -1.143535273270E+01 -1.145705733925E+01
 -1.147638553105E+01 -1.149328680289E+01 -1.150771143454E+01 -1.151961056148E+01
 -1.152893624649E+01 -1.153564155196E+01 -1.153968061245E+01 -1.154100870721E+01
 -1.153958233236E+01 -1.153535927208E+01 -1.152829866866E+01 -1.151836109084E+01
 -1.150550859996E+01 -1.148970481368E+01 -1.147091496680E+01 -1.144910596891E+01
 -1.142424645881E+01 -1.139630685545E+01 -1.136525940583E+01 -1.133107822991E+01
 -1.129373936350E+01 -1.125322079984E+01 -1.120950253154E+01 -1.116256659454E+01
 -1.111239711673E+01 -1.105898037415E+01 -1.100230485877E+01 -1.094236136234E+01
 -1.087914308202E+01 -1.081264575434E+01 -1.074286782522E+01 -1.066981066509E+01