<?xml version="1.0" encoding="UTF-8" ?>
<psml version="1.1" energy_unit="hartree" length_unit="bohr"
 uuid="2892d020-1d66-11e8-51bd-c21e6d7f85bc"
 xmlns="http://esl.cecam.org/PSML/ns/1.1">
<provenance creator="ONCVPSP-3.3.0+psml-3.3.0-73 (scalar-relativistic)"
 date="2018-03-01">
<annotation action="semilocal-pseudopotential-generation"
 action-cont="projectors-generation" />
<input-file name="oncvpsp-input">
<![CDATA[# atsym z nc nv iexc psfile
Hf 72 9 5 -116133 upf
# n l f
1 0 2.0
2 0 2.0
2 1 6.0
3 0 2.0
3 1 6.0
3 2 10.0
4 0 2.0
4 1 6.0
4 2 10.0
5 0 2.0
5 1 6.0
4 3 14.0
5 2 2.0
6 0 2.0
# lmax
3
# l rc ep ncon nbas qcut
0 1.55 0.0 4 8 7.5
1 1.6 0.0 4 8 8.0
2 1.4 0.0 4 8 9.2
3 1.6 0.0 4 8 11.4
# lloc lpopt rc5 dvloc0
4 5 1.3 0.0
# l nproj debl
0 2 1.0
1 2 1.0
2 2 1.0
3 2 1.5
# icmod fcfact
3 3 1.45
# epsh1 epsh2 depsh
-12.0 12.0 0.02
# rlmax drl
6.0 0.01
 0
]]>
</input-file>
</provenance>
<pseudo-atom-spec atomic-label="Hf" atomic-number="72" z-pseudo="26"
 flavor="Hamann&apos;s oncvpsp" relativity="scalar" spin-dft="no"
 core-corrections="yes">
<annotation pseudo-energy="-270.877598659" />
<exchange-correlation>
<annotation oncvpsp-xc-code="-116133" oncvpsp-xc-type="libxc-interface" />
<libxc-info number-of-functionals="2">
<functional name="Perdew, Burke &amp; Ernzerhof SOL (GGA)" type="exchange"
 id="116" />
<functional name="Perdew, Burke &amp; Ernzerhof SOL (GGA)" type="correlation"
 id="133" />
</libxc-info>
</exchange-correlation>
<valence-configuration total-valence-charge="26">
<shell n="5" l="s" occupation="2" />
<shell n="5" l="p" occupation="6" />
<shell n="4" l="f" occupation="14" />
<shell n="5" l="d" occupation="2" />
<shell n="6" l="s" occupation="2" />
</valence-configuration>
</pseudo-atom-spec>
<grid npts="457">
<annotation type="sampled from oncvpsp log grid"
 recipe="r(i:1..N) = r1*exp(a*(i-1)) + r=0; resampled"
 recipe-cont="r1: scale; a: step" scale="0.694444444444E-05"
 step="0.119285708653E-01" delta="0.500000000000E-02" rmax="44.0200392416" />
<grid-data>
  0.000000000000E+00  5.026670407229E-03  1.004037965951E-02  1.506217053265E-02
  2.029552887432E-02  2.545834165589E-02  3.081188800123E-02  3.598031598865E-02
  4.102519090483E-02  4.622274527913E-02  5.146125203343E-02  5.661407921772E-02
  6.228286019135E-02  6.770677621320E-02  7.273027184416E-02  7.812648509314E-02
  8.392306969631E-02  8.908076201112E-02  9.455543260272E-02  1.003665621267E-01
  1.065348284690E-01  1.117412849051E-01  1.172021857236E-01  1.229299658586E-01
  1.289376679513E-01  1.352389720489E-01  1.418482267551E-01  1.470162864660E-01
  1.523726378587E-01  1.579241411011E-01  1.636779063026E-01  1.696413026204E-01
  1.758219676977E-01  1.822278174452E-01  1.888670561800E-01  1.957481871331E-01
  2.028800233396E-01  2.102716989265E-01  2.153484988254E-01  2.205478729811E-01
  2.258727808263E-01  2.313262532466E-01  2.369113943050E-01  2.426313830091E-01
  2.484894751204E-01  2.544890050078E-01  2.606333875447E-01  2.669261200535E-01
  2.733707842961E-01  2.799710485122E-01  2.867306695074E-01  2.936534947920E-01
  3.007434647703E-01  3.080046149837E-01  3.154410784079E-01  3.230570878049E-01
  3.308569781329E-01  3.388451890129E-01  3.470262672565E-01  3.554048694531E-01
  3.639857646212E-01  3.727738369222E-01  3.817740884408E-01  3.909916420322E-01
  4.004317442374E-01  4.100997682703E-01  4.200012170754E-01  4.250412316803E-01
  4.301417264604E-01  4.353034271780E-01  4.405270683041E-01  4.458133931238E-01
  4.511631538412E-01  4.565771116873E-01  4.620560370276E-01  4.676007094719E-01
  4.732119179856E-01  4.788904610014E-01  4.846371465334E-01  4.904527922918E-01
  4.963382257993E-01  5.022942845089E-01  5.083218159230E-01  5.144216777141E-01
  5.205947378467E-01  5.268418747008E-01  5.331639771972E-01  5.395619449236E-01
  5.460366882627E-01  5.525891285218E-01  5.592201980641E-01  5.659308404409E-01
  5.727220105262E-01  5.795946746525E-01  5.865498107483E-01  5.935884084773E-01
  6.007114693790E-01  6.079200070116E-01  6.152150470957E-01  6.225976276608E-01
  6.300687991928E-01  6.376296247831E-01  6.452811802805E-01  6.530245544439E-01
  6.608608490972E-01  6.687911792863E-01  6.768166734378E-01  6.849384735190E-01
  6.931577352013E-01  7.014756280237E-01  7.098933355600E-01  7.184120555867E-01
  7.270330002537E-01  7.357573962568E-01  7.445864850118E-01  7.535215228320E-01
  7.625637811060E-01  7.717145464792E-01  7.809751210370E-01  7.903468224894E-01
  7.998309843593E-01  8.094289561716E-01  8.191421036457E-01  8.289718088894E-01
  8.389194705961E-01  8.489865042433E-01  8.591743422942E-01  8.694844344017E-01
  8.799182476145E-01  8.904772665859E-01  9.011629937849E-01  9.119769497104E-01
  9.229206731069E-01  9.339957211842E-01  9.452036698384E-01  9.565461138764E-01
  9.680246672429E-01  9.796409632499E-01  9.913966548089E-01  1.003293414667E+00
  1.015332935643E+00  1.027516930870E+00  1.039847134041E+00  1.052325299649E+00
  1.064953203245E+00  1.077732641684E+00  1.090665433384E+00  1.103753418585E+00
  1.116998459608E+00  1.130402441123E+00  1.143967270417E+00  1.157694877662E+00
  1.171587216193E+00  1.185646262788E+00  1.199874017941E+00  1.214272506157E+00
  1.228843776230E+00  1.243589901545E+00  1.258512980364E+00  1.273615136128E+00
  1.288898517762E+00  1.304365299975E+00  1.320017683574E+00  1.335857895777E+00
  1.351888190527E+00  1.368110848813E+00  1.384528178999E+00  1.401142517147E+00
  1.417956227353E+00  1.434971702081E+00  1.452191362506E+00  1.469617658856E+00
  1.487253070762E+00  1.505100107611E+00  1.523161308903E+00  1.541439244609E+00
  1.559936515545E+00  1.578655753731E+00  1.597599622776E+00  1.616770818249E+00
  1.636172068068E+00  1.655806132885E+00  1.675675806480E+00  1.695783916157E+00
  1.716133323151E+00  1.736726923029E+00  1.757567646106E+00  1.778658457859E+00
  1.800002359353E+00  1.821602387665E+00  1.843461616317E+00  1.865583155713E+00
  1.887970153582E+00  1.910625795425E+00  1.933553304970E+00  1.956755944629E+00
  1.980237015965E+00  2.003999860157E+00  2.028047858478E+00  2.052384432780E+00
  2.077013045974E+00  2.101937202525E+00  2.127160448956E+00  2.152686374343E+00
  2.178518610835E+00  2.204660834165E+00  2.231116764175E+00  2.257890165345E+00
  2.284984847329E+00  2.312404665497E+00  2.340153521483E+00  2.368235363741E+00
  2.396654188106E+00  2.425414038363E+00  2.454519006824E+00  2.483973234905E+00
  2.513780913724E+00  2.543946284689E+00  2.574473640105E+00  2.605367323787E+00
  2.636631731672E+00  2.668271312452E+00  2.700290568202E+00  2.732694055020E+00
  2.765486383680E+00  2.798672220284E+00  2.832256286928E+00  2.866243362371E+00
  2.900638282719E+00  2.935445942112E+00  2.970671293417E+00  3.006319348938E+00
  3.042395181126E+00  3.078903923299E+00  3.115850770379E+00  3.153240979623E+00
  3.191079871379E+00  3.229372829835E+00  3.268125303793E+00  3.307342807439E+00
  3.347030921128E+00  3.387195292182E+00  3.427841635688E+00  3.468975735316E+00
  3.510603444140E+00  3.552730685469E+00  3.595363453695E+00  3.638507815139E+00
  3.682169908921E+00  3.726355947828E+00  3.771072219202E+00  3.816325085833E+00
  3.862120986863E+00  3.908466438705E+00  3.955368035969E+00  4.002832452401E+00
  4.050866441830E+00  4.099476839132E+00  4.148670561201E+00  4.198454607936E+00
  4.248836063231E+00  4.299822095990E+00  4.351419961142E+00  4.403637000675E+00
  4.456480644683E+00  4.509958412420E+00  4.564077913369E+00  4.618846848329E+00
  4.674273010509E+00  4.730364286635E+00  4.787128658075E+00  4.844574201972E+00
  4.902709092395E+00  4.961541601504E+00  5.021080100722E+00  5.081333061931E+00
  5.142309058674E+00  5.204016767378E+00  5.266464968587E+00  5.329662548210E+00
  5.393618498788E+00  5.458341920774E+00  5.523842023823E+00  5.590128128109E+00
  5.657209665646E+00  5.725096181634E+00  5.793797335813E+00  5.863322903843E+00
  5.933682778689E+00  6.004886972034E+00  6.076945615698E+00  6.149868963086E+00
  6.223667390643E+00  6.298351399331E+00  6.373931616123E+00  6.450418795517E+00
  6.527823821063E+00  6.606157706915E+00  6.685431599398E+00  6.765656778591E+00
  6.846844659934E+00  6.929006795854E+00  7.012154877404E+00  7.096300735933E+00
  7.181456344764E+00  7.267633820901E+00  7.354845426752E+00  7.443103571873E+00
  7.532420814735E+00  7.622809864512E+00  7.714283582886E+00  7.806854985881E+00
  7.900537245711E+00  7.995343692660E+00  8.091287816972E+00  8.188383270776E+00
  8.286643870025E+00  8.386083596465E+00  8.486716599623E+00  8.588557198818E+00
  8.691619885204E+00  8.795919323827E+00  8.901470355712E+00  9.008287999981E+00
  9.116387455981E+00  9.225784105453E+00  9.336493514718E+00  9.448531436895E+00
  9.561913814137E+00  9.676656779907E+00  9.792776661266E+00  9.910289981201E+00
  1.002921346098E+01  1.014956402251E+01  1.027135879078E+01  1.039461509627E+01
  1.051935047742E+01  1.064558268315E+01  1.077332967535E+01  1.090260963145E+01
  1.103344094703E+01  1.116584223839E+01  1.129983234526E+01  1.143543033340E+01
  1.157265549740E+01  1.171152736337E+01  1.185206569173E+01  1.199429048003E+01
  1.213822196579E+01  1.228388062938E+01  1.243128719693E+01  1.258046264329E+01
  1.273142819501E+01  1.288420533335E+01  1.303881579735E+01  1.319528158692E+01
  1.335362496597E+01  1.351386846556E+01  1.367603488714E+01  1.384014730579E+01
  1.400622907346E+01  1.417430382234E+01  1.434439546821E+01  1.451652821383E+01
  1.469072655239E+01  1.486701527102E+01  1.504541945427E+01  1.522596448773E+01
  1.540867606158E+01  1.559358017432E+01  1.578070313641E+01  1.597007157405E+01
  1.616171243293E+01  1.635565298213E+01  1.655192081792E+01  1.675054386773E+01
  1.695155039414E+01  1.715496899887E+01  1.736082862686E+01  1.756915857038E+01
  1.777998847323E+01  1.799334833491E+01  1.820926851492E+01  1.842777973710E+01
  1.864891309395E+01  1.887270005108E+01  1.909917245169E+01  1.932836252111E+01
  1.956030287136E+01  1.979502650582E+01  2.003256682389E+01  2.027295762577E+01
  2.051623311728E+01  2.076242791469E+01  2.101157704967E+01  2.126371597426E+01
  2.151888056596E+01  2.177710713275E+01  2.203843241834E+01  2.230289360736E+01
  2.257052833065E+01  2.284137467062E+01  2.311547116666E+01  2.339285682066E+01
  2.367357110251E+01  2.395765395574E+01  2.424514580321E+01  2.453608755285E+01
  2.483052060348E+01  2.512848685072E+01  2.543002869293E+01  2.573518903725E+01
  2.604401130570E+01  2.635653944136E+01  2.667281791466E+01  2.699289172964E+01
  2.731680643039E+01  2.764460810756E+01  2.797634340485E+01  2.831205952571E+01
  2.865180424001E+01  2.899562589089E+01  2.934357340158E+01  2.969569628240E+01
  3.005204463779E+01  3.041266917345E+01  3.077762120353E+01  3.114695265797E+01
  3.152071608987E+01  3.189896468294E+01  3.228175225914E+01  3.266913328625E+01
  3.306116288568E+01  3.345789684031E+01  3.385939160240E+01  3.426570430162E+01
  3.467689275324E+01  3.509301546628E+01  3.551413165188E+01  3.594030123170E+01
  3.637158484648E+01  3.680804386464E+01  3.724974039101E+01  3.769673727571E+01
  3.814909812302E+01  3.860688730049E+01  3.907016994810E+01  3.953901198747E+01
  4.001348013132E+01  4.049364189290E+01  4.097956559561E+01  4.147132038276E+01
  4.196897622736E+01  4.247260394208E+01  4.298227518939E+01  4.349806249166E+01
  4.402003924156E+01
</grid-data>
</grid>
<valence-charge total-charge="26" is-unscreening-charge="yes"
 rescaled-to-z-pseudo="no">
<radfunc>
<data npts="457">
  2.056330887023E-01  2.059535049990E-01  2.069117206670E-01  2.085116767911E-01
  2.108625291627E-01  2.138680676793E-01  2.177092417274E-01  2.221240589232E-01
  2.271113798425E-01  2.329623871351E-01  2.396082282249E-01  2.469002915766E-01
  2.558202064273E-01  2.652764294417E-01  2.748826560564E-01  2.861672117745E-01
  2.994845475729E-01  3.124601519573E-01  3.274972589344E-01  3.450199156813E-01
  3.655693788186E-01  3.846505473114E-01  4.065620666367E-01  4.318626952120E-01
  4.612481622608E-01  4.955878321482E-01  5.359710856668E-01  5.710350339264E-01
  6.109636673800E-01  6.565918286864E-01  7.089110059734E-01  7.690982959098E-01
  8.385501582813E-01  9.189215378130E-01  1.012170919456E+00  1.120611837349E+00
  1.246971260269E+00  1.394455108778E+00  1.506343976521E+00  1.630544200253E+00
  1.768457119011E+00  1.921631285012E+00  2.091774333567E+00  2.280765003249E+00
  2.490665096938E+00  2.723731118319E+00  2.982425253578E+00  3.269425293997E+00
  3.587633011534E+00  3.940180406243E+00  4.330433141935E+00  4.761990375656E+00
  5.238680068939E+00  5.764548746749E+00  6.343844547083E+00  6.980992284904E+00
  7.680559144793E+00  8.447209525086E+00  9.285647492261E+00  1.020054527963E+01
  1.119645629313E+01  1.227771118515E+01  1.344829574356E+01  1.471170963666E+01
  1.607080547758E+01  1.752760824401E+01  1.908311583234E+01  1.989786194028E+01
  2.073708245539E+01  2.160051442980E+01  2.248778772333E+01  2.339841731281E+01
  2.433179558125E+01  2.528718464800E+01  2.626370880833E+01  2.726034715839E+01
  2.827592648886E+01  2.930911453838E+01  3.035841370507E+01  3.142215532193E+01
  3.249849460884E+01  3.358540642012E+01  3.468068191261E+01  3.578192626404E+01
  3.688655757537E+01  3.799180709338E+01  3.909472089106E+01  4.019216314250E+01
  4.128082112670E+01  4.235721208982E+01  4.341769208815E+01  4.445846692433E+01
  4.547560527627E+01  4.646505410270E+01  4.742265638958E+01  4.834417127939E+01
  4.922529659905E+01  5.006169377245E+01  5.084901507056E+01  5.158293311569E+01
  5.225917251633E+01  5.287354346707E+01  5.342197710254E+01  5.390056234773E+01
  5.430558395882E+01  5.463356139983E+01  5.488128815230E+01  5.504587100837E+01
  5.512476885347E+01  5.511583040430E+01  5.501733033283E+01  5.482800317854E+01
  5.454707443020E+01  5.417428814822E+01  5.370993049785E+01  5.315484857614E+01
  5.251046394128E+01  5.177878029281E+01  5.096238480691E+01  5.006444270192E+01
  4.908868469616E+01  4.803938712230E+01  4.692134457950E+01  4.573983513442E+01
  4.450057822363E+01  4.320968555995E+01  4.187360550108E+01  4.049906149702E+01
  3.909298538832E+01  3.766244647718E+01  3.621457743137E+01  3.475649820285E+01
  3.329523924399E+01  3.183766537871E+01  3.039040173040E+01  2.895976311840E+01
  2.755168830798E+01  2.617168043233E+01  2.482475479963E+01  2.351539515310E+01
  2.224751927079E+01  2.102445457738E+01  1.984892419908E+01  1.872304363049E+01
  1.764832790867E+01  1.662570891329E+01  1.565556214198E+01  1.473774205927E+01
  1.387162489343E+01  1.305615756905E+01  1.228991132265E+01  1.157113845862E+01
  1.089783066981E+01  1.026777737086E+01  9.678622572493E+00  9.127918957697E+00
  8.613177998340E+00  8.131915165324E+00  7.681689524721E+00  7.260137264895E+00
  6.864998952193E+00  6.494140552901E+00  6.145568475529E+00  5.817439070565E+00
  5.508063167839E+00  5.215906330380E+00  4.939585556988E+00  4.677863176335E+00
  4.429638474260E+00  4.193937141097E+00  3.969899422045E+00  3.756769076052E+00
  3.553882985606E+00  3.360660680126E+00  3.176594582845E+00  3.001240894919E+00
  2.834211197670E+00  2.675165031586E+00  2.523804144563E+00  2.379867791710E+00
  2.243124022201E+00  2.113353529727E+00  1.990332451330E+00  1.873830856850E+00
  1.763616727315E+00  1.659455533145E+00  1.561111522411E+00  1.468348653209E+00
  1.380931499018E+00  1.298626096887E+00  1.221200736047E+00  1.148426685660E+00
  1.080078860963E+00  1.015936427564E+00  9.557833441714E-01  8.994088444879E-01
  8.466078593963E-01  7.971813809778E-01  7.509367702178E-01  7.076880105701E-01
  6.672559098069E-01  6.294682528256E-01  5.941599082527E-01  5.611728918454E-01
  5.303563897996E-01  5.015667451364E-01  4.746674103689E-01  4.495288696341E-01
  4.260285334227E-01  4.040506089456E-01  3.834859490579E-01  3.642318825110E-01
  3.461920281386E-01  3.292760954087E-01  3.133996735952E-01  2.984840116561E-01
  2.844557907420E-01  2.712468911212E-01  2.587941551757E-01  2.470391480131E-01
  2.359279171398E-01  2.254107525453E-01  2.154419484631E-01  2.059795679694E-01
  1.969852115468E-01  1.884237905039E-01  1.802633062130E-01  1.724746358981E-01
  1.650313256369E-01  1.579093911262E-01  1.510871266509E-01  1.445449225920E-01
  1.382650917121E-01  1.322317043649E-01  1.264304326957E-01  1.208484038250E-01
  1.154740619432E-01  1.102970391892E-01  1.053080351393E-01  1.004987046904E-01
  9.586155409105E-02  9.138984484418E-02  8.707750518722E-02  8.291904883498E-02
  7.890950066064E-02  7.504432898020E-02  7.131938410019E-02  6.773084278571E-02
  6.427515830499E-02  6.094901570858E-02  5.774929200468E-02  5.467302089716E-02
  5.171736175973E-02  4.887957252775E-02  4.615698619864E-02  4.354699064263E-02
  4.104701143740E-02  3.865449745362E-02  3.636690893248E-02  3.418170781173E-02
  3.209635007338E-02  3.010827990300E-02  2.821492546861E-02  2.641369613733E-02
  2.470198101460E-02  2.307714858344E-02  2.153654740338E-02  2.007750771961E-02
  1.869734389250E-02  1.739335755993E-02  1.616284145068E-02  1.500308377115E-02
  1.391137308835E-02  1.288500363116E-02  1.192128092894E-02  1.101752770343E-02
  1.017108992592E-02  9.379342949697E-03  8.639697626100E-03  7.949606313537E-03
  7.306568691919E-03  6.708137300192E-03  6.151922722235E-03  5.635598355806E-03
  5.156904710068E-03  4.713653189022E-03  4.303729330508E-03  3.925095482619E-03
  3.575792911154E-03  3.253943342663E-03  2.957749957407E-03  2.685497855035E-03
  2.435554022852E-03  2.206366842110E-03  1.996465171944E-03  1.804457053369E-03
  1.629028077309E-03  1.468939461080E-03  1.323025877354E-03  1.190193077894E-03
  1.069415353283E-03  9.597328678736E-04  8.602488911921E-04  7.701270272237E-04
  6.885882574004E-04  6.149082247517E-04  5.484144813494E-04  4.884833095123E-04
  4.345371966324E-04  3.860424050329E-04  3.425061527263E-04  3.034740629656E-04
  2.685278048860E-04  2.372827776441E-04  2.093858869800E-04  1.845134256868E-04
  1.623690548824E-04  1.426818856569E-04  1.252046597128E-04  1.097120270592E-04
  9.599891839787E-05  8.387900953636E-05  7.318327495065E-05  6.375862748216E-05
  5.546664107092E-05  4.818235338532E-05  4.179314519552E-05  3.619769334427E-05
  3.130499418741E-05  2.703345440255E-05  2.331004609535E-05  2.006952316619E-05
  1.725369593571E-05  1.481076106580E-05  1.269468385348E-05  1.086463001974E-05
  9.284444164838E-06  7.922172116186E-06  6.749624455714E-06  5.741978581086E-06
  4.877416728846E-06  4.136797468186E-06  3.503358260667E-06  2.962446773611E-06
  2.501278732266E-06  2.108720197411E-06  1.775092259852E-06  1.491996250415E-06
  1.252157672478E-06  1.049287172933E-06  8.779569757724E-07  7.334913094554E-07
  6.118694639765E-07  5.096402155591E-07  4.238464554490E-07  3.519589539581E-07
  2.918182812889E-07  2.415839924662E-07  1.996902646978E-07  1.648072515557E-07
  1.358074894550E-07  1.117367580167E-07  9.178885710659E-08  7.528381974648E-08
  6.164913186816E-08  5.040357719235E-08  4.114336859239E-08  3.353026636318E-08
  2.728141910907E-08  2.216069473420E-08  1.797129751912E-08  1.454949274527E-08
  1.175928303087E-08  9.487900703130E-09  7.641998381078E-09  6.144435696735E-09
  4.931573944206E-09  3.951002607426E-09  3.159632356063E-09  2.522098379559E-09
  2.009426002754E-09  1.597917530923E-09  1.268225332939E-09  1.004581402219E-09
  7.941581382479E-10  6.265389585230E-10  4.932806635113E-10  3.875523082630E-10
  3.038377481825E-10  2.376910798055E-10  1.855359402120E-10  1.445011046251E-10
  1.122860689512E-10  8.705135569204E-11  6.732916661856E-11  5.195074869103E-11
  3.998746243656E-11  3.070306277748E-11  2.351513696501E-11  1.796400633294E-11
  1.368769957506E-11  1.040185497722E-11  7.883615822565E-12  5.958754083288E-12
  4.491398464443E-12  3.375858890394E-12  2.530134838885E-12  1.890773069484E-12
  1.408804224571E-12  1.046539977091E-12  7.750549228336E-13  5.722119978300E-13
  4.211181064680E-13  3.089203557838E-13  2.258668745861E-13  1.285925283998E-15
  8.434892884671E-16  5.506423354019E-16  3.577346091626E-16  2.312748939417E-16
  1.487807449196E-16  9.523353315325E-17  6.065015363119E-17  3.842787310276E-17
  2.422180471071E-17  1.518746556107E-17  9.472298891062E-18  5.876098275861E-18
  3.625419220375E-18  2.224510991606E-18  1.357342015620E-18  8.235564405043E-19
  4.968409180244E-19  2.980104365910E-19  1.777074276610E-19  1.053438459020E-19
  6.207423359735E-20  3.635640413497E-20  2.116343760995E-20  1.224320799542E-20
  7.038426394545E-21  4.020633267325E-21  2.282016123100E-21  1.286810886309E-21
  7.208560030357E-22  4.011304923724E-22  2.217131041924E-22  1.217111333180E-22
  6.635395063442E-23  3.592233787947E-23  1.931021021449E-23  1.030615173278E-23
  5.460797958304E-24  0.000000000000E+00  0.000000000000E+00  0.000000000000E+00
  0.000000000000E+00
</data>
</radfunc>
</valence-charge>
<pseudocore-charge matching-radius="0.653024554444"
 number-of-continuous-derivatives="4">
<annotation model-charge-form="Teter function with specified parameters" />
<radfunc>
<data npts="290">
  1.705786917351E+02  1.705635042085E+02  1.705181057225E+02  1.704423725766E+02
  1.703312631081E+02  1.701895209864E+02  1.700089201358E+02  1.698021820626E+02
  1.695698107401E+02  1.692989406664E+02  1.689937678597E+02  1.686622393255E+02
  1.682618093880E+02  1.678438838474E+02  1.674266752402E+02  1.669464672195E+02
  1.663939604399E+02  1.658707042657E+02  1.652830017729E+02  1.646231781688E+02
  1.638827152355E+02  1.632259768980E+02  1.625063258693E+02  1.617180479132E+02
  1.608549753206E+02  1.599104650466E+02  1.588773791529E+02  1.580398551774E+02
  1.571447959924E+02  1.561886149463E+02  1.551675580745E+02  1.540777054614E+02
  1.529149744975E+02  1.516751253770E+02  1.503537692194E+02  1.489463792467E+02
  1.474483054881E+02  1.458547935322E+02  1.447370456256E+02  1.435732856919E+02
  1.423620606094E+02  1.411019161235E+02  1.397914023907E+02  1.384290801611E+02
  1.370135276399E+02  1.355433480724E+02  1.340171780922E+02  1.324336968753E+02
  1.307916361365E+02  1.290897910073E+02  1.273270318238E+02  1.255023168555E+02
  1.236147059939E+02  1.216633754140E+02  1.196476332141E+02  1.175669360251E+02
  1.154209065675E+02  1.132093521213E+02  1.109322838519E+02  1.085899369162E+02
  1.061827912507E+02  1.037115929130E+02  1.011773758216E+02  9.858148370590E+01
  9.592559203881E+01  9.321172969098E+01  9.044229999898E+01  8.903760581482E+01
  8.762010089911E+01  8.619019973638E+01  8.474834373098E+01  8.329500169029E+01
  8.183067026877E+01  8.035587436827E+01  7.887116749051E+01  7.737713203667E+01
  7.587437954977E+01  7.436355089447E+01  7.284531636978E+01  7.132037574883E+01
  6.978945824103E+01  6.825332237091E+01  6.671275576840E+01  6.516857486495E+01
  6.362162449020E+01  6.207277736367E+01  6.052293347616E+01  5.897301935563E+01
  5.742398721236E+01  5.587681395863E+01  5.433250009814E+01  5.279206848080E+01
  5.125656291893E+01  4.972704666125E+01  4.820460072148E+01  4.669032205903E+01
  4.518532160979E+01  4.369072216568E+01  4.220765610258E+01  4.073726295675E+01
  3.928068685122E+01  3.783907377410E+01  3.641356871236E+01  3.500531264541E+01
  3.361543940404E+01  3.224507240198E+01  3.089532124807E+01  2.956727824910E+01
  2.826201481429E+01  2.698057777445E+01  2.572398562990E+01  2.449322474331E+01
  2.328924549479E+01  2.211295841858E+01  2.096523034195E+01  1.984688054860E+01
  1.875867699040E+01  1.770133257264E+01  1.667550153930E+01  1.568177598599E+01
  1.472068252937E+01  1.379267916257E+01  1.289815232675E+01  1.203741422952E+01
  1.121070044087E+01  1.041816779705E+01  9.659892642658E+00  8.935869439826E+00
  8.246009772652E+00  7.590141772971E+00  6.968009991725E+00  6.379275737581E+00
  5.823517901483E+00  5.300234282412E+00  4.808843425741E+00  4.348686981270E+00
  3.919032583256E+00  3.519077249630E+00  3.147951292086E+00  2.804722722898E+00
  2.488402138273E+00  2.197948051772E+00  1.932272644974E+00  1.690247896187E+00
  1.470712041722E+00  1.272476318137E+00  1.094331928114E+00  9.350571672712E-01
  7.934246444643E-01  6.682085240781E-01  5.581917155754E-01  4.621729333201E-01
  3.789735485138E-01  3.074441550947E-01  2.464707727554E-01  1.949806128884E-01
  1.519473373414E-01  1.163957453648E-01  8.740583105758E-02  6.411616192259E-02
  4.572653874326E-02  3.149990777197E-02  2.076350801050E-02  1.290924896507E-02
  7.393327428755E-03  3.735105304901E-03  1.515283928467E-03  3.734234327651E-04
  4.868097931106E-06  1.571499460717E-04  6.259527639641E-04  1.250726900667E-03
  1.910051297979E-03  2.516843003456E-03  3.013515683040E-03  3.367187257789E-03
  3.565032682842E-03  3.609871103787E-03  3.516067300556E-03  3.305815696839E-03
  3.005861607888E-03  2.644699248637E-03  2.250269836798E-03  1.848166477515E-03
  1.460336028058E-03  1.104252453585E-03  7.925219299858E-04  5.328677186481E-04
  3.284331503614E-04  1.783343274523E-04  7.839066983207E-05  2.196132241327E-05
  8.186687278777E-07  5.996541499733E-06  2.855979436044E-05  6.025314943399E-05
  9.399997956333E-05  1.242351418379E-04  1.470693215144E-04  1.602947468483E-04
  1.632528308016E-04  1.565926369676E-04  1.419545742442E-04  1.216161269538E-04
  9.813568970357E-05  7.402691013064E-05  5.148979276603E-05  3.221683029241E-05
  1.728340059189E-05  7.122475703846E-06  1.575208854684E-06  1.990706419105E-09
  1.433724586414E-06  4.740760874574E-06  8.797275654264E-06  1.262170886230E-05
  1.547874698216E-05  1.693457183424E-05  1.686387786209E-05  1.541361341127E-05
  1.293371492909E-05  9.888631228363E-06  6.764786518756E-06  3.988224243681E-06
  1.863750736308E-06  5.424902724825E-07  1.961503335027E-08  0.000000000000E+00
  0.000000000000E+00  0.000000000000E+00  0.000000000000E+00  0.000000000000E+00
  0.000000000000E+00  0.000000000000E+00  0.000000000000E+00  0.000000000000E+00
  0.000000000000E+00  0.000000000000E+00  0.000000000000E+00  0.000000000000E+00
  0.000000000000E+00  0.000000000000E+00  0.000000000000E+00  0.000000000000E+00
  0.000000000000E+00  0.000000000000E+00  0.000000000000E+00  0.000000000000E+00
  0.000000000000E+00  0.000000000000E+00  0.000000000000E+00  0.000000000000E+00
  0.000000000000E+00  0.000000000000E+00  0.000000000000E+00  0.000000000000E+00
  0.000000000000E+00  0.000000000000E+00  0.000000000000E+00  0.000000000000E+00
  0.000000000000E+00  0.000000000000E+00  0.000000000000E+00  0.000000000000E+00
  0.000000000000E+00  0.000000000000E+00  0.000000000000E+00  0.000000000000E+00
  0.000000000000E+00  0.000000000000E+00  0.000000000000E+00  0.000000000000E+00
  0.000000000000E+00  0.000000000000E+00  0.000000000000E+00  0.000000000000E+00
  0.000000000000E+00  0.000000000000E+00  0.000000000000E+00  0.000000000000E+00
  0.000000000000E+00  0.000000000000E+00  0.000000000000E+00  0.000000000000E+00
  0.000000000000E+00  0.000000000000E+00  0.000000000000E+00  0.000000000000E+00
  0.000000000000E+00  0.000000000000E+00
</data>
</radfunc>
</pseudocore-charge>
<semilocal-potentials set="scalar_relativistic">
<slps n="5" l="s" rc="1.55993651554" eref="-2.46372219572">
<radfunc>
<data npts="290">
  8.115566836952E+00  8.101369767833E+00  8.058979602729E+00  7.988423440776E+00
  7.885266438780E+00  7.754282198628E+00  7.588376138973E+00  7.399804818824E+00
  7.189547414666E+00  6.946689675829E+00  6.675916204342E+00  6.385111616233E+00
  6.038439560655E+00  5.681844665801E+00  5.331067370637E+00  4.933612561405E+00
  4.484437685720E+00  4.066839064447E+00  3.606594464417E+00  3.100618383877E+00
  2.545897246633E+00  2.065093445310E+00  1.549899873824E+00  9.990944792861E-01
  4.116274384034E-01 -2.133389498680E-01 -8.763887824799E-01 -1.398854245020E+00
 -1.942910022967E+00 -2.508439302583E+00 -3.095200515905E+00 -3.702819450830E+00
 -4.330782456037E+00 -4.978430974240E+00 -5.644957623576E+00 -6.329404022730E+00
 -7.030660520014E+00 -7.747467940267E+00 -8.233291020963E+00 -8.724953031091E+00
 -9.221976229579E+00 -9.723857381907E+00 -1.023006907950E+01 -1.074006120068E+01
 -1.125326249627E+01 -1.176908228093E+01 -1.228691220887E+01 -1.280612811173E+01
 -1.332609187531E+01 -1.384615333218E+01 -1.436565214804E+01 -1.488391968187E+01
 -1.540028080258E+01 -1.591405564906E+01 -1.642456132491E+01 -1.693111352378E+01
 -1.743302808582E+01 -1.792962248834E+01 -1.842021727401E+01 -1.890413741581E+01
 -1.938071360831E+01 -1.984928345897E+01 -2.030919253111E+01 -2.075979516545E+01
 -2.120045498371E+01 -2.163054496585E+01 -2.204944700008E+01 -2.225451156886E+01
 -2.245655084239E+01 -2.265548950263E+01 -2.285125249248E+01 -2.304376494128E+01
 -2.323295208797E+01 -2.341873920399E+01 -2.360105151852E+01 -2.377981414827E+01
 -2.395495203404E+01 -2.412638988541E+01 -2.429405213503E+01 -2.445786290263E+01
 -2.461774596857E+01 -2.477362475617E+01 -2.492542232112E+01 -2.507306134634E+01
 -2.521646414026E+01 -2.535555263679E+01 -2.549024839569E+01 -2.562047260292E+01
 -2.574614607153E+01 -2.586718924511E+01 -2.598352220720E+01 -2.609506470174E+01
 -2.620173617106E+01 -2.630345581937E+01 -2.640014271077E+01 -2.649171591121E+01
 -2.657809468444E+01 -2.665919875053E+01 -2.673494861481E+01 -2.680526597227E+01
 -2.687007418916E+01 -2.692929885966E+01 -2.698286843032E+01 -2.703071487987E+01
 -2.707277443661E+01 -2.710898831077E+01 -2.713930341506E+01 -2.716367304440E+01
 -2.718205748507E+01 -2.719442452520E+01 -2.720074984257E+01 -2.720101725155E+01
 -2.719521879895E+01 -2.718335470704E+01 -2.716543317072E+01 -2.714147002373E+01
 -2.711148829525E+01 -2.707551768181E+01 -2.703359396123E+01 -2.698575837388E+01
 -2.693205699296E+01 -2.687254010062E+01 -2.680726157997E+01 -2.673627832698E+01
 -2.665964968004E+01 -2.657743686024E+01 -2.648970241205E+01 -2.639650963275E+01
 -2.629792197957E+01 -2.619400244589E+01 -2.608481290245E+01 -2.597041340530E+01
 -2.585086147935E+01 -2.572621139492E+01 -2.559651346256E+01 -2.546181337999E+01
 -2.532215167144E+01 -2.517756326462E+01 -2.502807725131E+01 -2.487371687448E+01
 -2.471449977623E+01 -2.455043852743E+01 -2.438154144271E+01 -2.420781366618E+01
 -2.402925849839E+01 -2.384587892822E+01 -2.365767934010E+01 -2.346466738943E+01