<?xml version="1.0" encoding="UTF-8" ?>
<psml version="1.1" energy_unit="hartree" length_unit="bohr"
 uuid="4b7f9b00-1d60-11e8-7818-8910fd6727a2"
 xmlns="http://esl.cecam.org/PSML/ns/1.1">
<provenance creator="ONCVPSP-3.3.0+psml-3.3.0-73 (scalar-relativistic)"
 date="2018-03-01">
<annotation action="semilocal-pseudopotential-generation"
 action-cont="projectors-generation" />
<input-file name="oncvpsp-input">
<![CDATA[# atsym z nc nv iexc psfile
Cd 48 6 4 -116133 upf
# n l f
1 0 2.0
2 0 2.0
2 1 6.0
3 0 2.0
3 1 6.0
3 2 10.0
4 0 2.0
4 1 6.0
4 2 10.0
5 0 2.0
# lmax
2
# l rc ep ncon nbas qcut
0 1.25 0.0 4 8 10.0
1 1.3 0.0 4 8 10.0
2 1.35 0.0 4 8 10.0
# lloc lpopt rc5 dvloc0
4 5 1.25 0.0
# l nproj debl
0 2 2.0
1 2 2.0
2 2 2.0
# icmod fcfact
3 6 1.26
# epsh1 epsh2 depsh
-12.0 12.0 0.02
# rlmax drl
6.0 0.01
 0
]]>
</input-file>
</provenance>
<pseudo-atom-spec atomic-label="Cd" atomic-number="48" z-pseudo="20"
 flavor="Hamann&apos;s oncvpsp" relativity="scalar" spin-dft="no"
 core-corrections="yes">
<annotation pseudo-energy="-167.912085964" />
<exchange-correlation>
<annotation oncvpsp-xc-code="-116133" oncvpsp-xc-type="libxc-interface" />
<libxc-info number-of-functionals="2">
<functional name="Perdew, Burke &amp; Ernzerhof SOL (GGA)" type="exchange"
 id="116" />
<functional name="Perdew, Burke &amp; Ernzerhof SOL (GGA)" type="correlation"
 id="133" />
</libxc-info>
</exchange-correlation>
<valence-configuration total-valence-charge="20">
<shell n="4" l="s" occupation="2" />
<shell n="4" l="p" occupation="6" />
<shell n="4" l="d" occupation="10" />
<shell n="5" l="s" occupation="2" />
</valence-configuration>
</pseudo-atom-spec>
<grid npts="457">
<annotation type="sampled from oncvpsp log grid"
 recipe="r(i:1..N) = r1*exp(a*(i-1)) + r=0; resampled"
 recipe-cont="r1: scale; a: step" scale="0.104166666667E-04"
 step="0.119285708653E-01" delta="0.500000000000E-02" rmax="44.0153601024" />
<grid-data>
  0.000000000000E+00  5.026136093974E-03  1.003931241072E-02  1.506056948927E-02
  2.029337154766E-02  2.545563554462E-02  3.080861283122E-02  3.597649143716E-02
  4.102083010503E-02  4.621783200185E-02  5.145578192561E-02  5.660806138672E-02
  6.227623979354E-02  6.769957927664E-02  7.272254093181E-02  7.811818058674E-02
  8.391414903812E-02  8.907129311261E-02  9.454538177047E-02  1.003558935966E-01
  1.065235042789E-01  1.117294072913E-01  1.171897276397E-01  1.229168989365E-01
  1.289239624366E-01  1.352245967329E-01  1.418331489041E-01  1.470006592726E-01
  1.523564413084E-01  1.579073544501E-01  1.636605080513E-01  1.696232704860E-01
  1.758032785853E-01  1.822084474188E-01  1.888469804314E-01  1.957273799500E-01
  2.028584580733E-01  2.102493479572E-01  2.153256082143E-01  2.205244296990E-01
  2.258487715297E-01  2.313016642695E-01  2.368862116516E-01  2.426055923457E-01
  2.484630617673E-01  2.544619539307E-01  2.606056833464E-01  2.668977469651E-01
  2.733417261678E-01  2.799412888044E-01  2.867001912813E-01  2.936222806996E-01
  3.007114970448E-01  3.079718754294E-01  3.154075483898E-01  3.230227482381E-01
  3.308218094716E-01  3.388091712395E-01  3.469893798699E-01  3.553670914575E-01
  3.639470745136E-01  3.727342126807E-01  3.817335075116E-01  3.909500813170E-01
  4.003891800803E-01  4.100561764442E-01  4.199565727682E-01  4.249960516415E-01
  4.300960042611E-01  4.352571563123E-01  4.404802421880E-01  4.457660050943E-01
  4.511151971554E-01  4.565285795213E-01  4.620069224755E-01  4.675510055452E-01
  4.731616176118E-01  4.788395570231E-01  4.845856317074E-01  4.904006592879E-01
  4.962854671994E-01  5.022408928057E-01  5.082677835194E-01  5.143669969216E-01
  5.205394008847E-01  5.267858736953E-01  5.331073041797E-01  5.395045918298E-01
  5.459786469318E-01  5.525303906950E-01  5.591607553833E-01  5.658706844479E-01
  5.726611326613E-01  5.795330662532E-01  5.864874630482E-01  5.935253126048E-01
  6.006476163561E-01  6.078553877524E-01  6.151496524054E-01  6.225314482343E-01
  6.300018256131E-01  6.375618475204E-01  6.452125896907E-01  6.529551407670E-01
  6.607906024562E-01  6.687200896856E-01  6.767447307619E-01  6.848656675310E-01
  6.930840555414E-01  7.014010642079E-01  7.098178769784E-01  7.183356915021E-01
  7.269557198001E-01  7.356791884377E-01  7.445073386990E-01  7.534414267634E-01
  7.624827238845E-01  7.716325165711E-01  7.808921067700E-01  7.902628120512E-01
  7.997459657959E-01  8.093429173854E-01  8.190550323940E-01  8.288836927828E-01
  8.388302970962E-01  8.488962606613E-01  8.590830157892E-01  8.693920119787E-01
  8.798247161225E-01  8.903826127159E-01  9.010672040685E-01  9.118800105173E-01
  9.228225706435E-01  9.338964414913E-01  9.451031987892E-01  9.564444371746E-01
  9.679217704207E-01  9.795368316658E-01  9.912912736458E-01  1.003186768930E+00
  1.015225010157E+00  1.027407710279E+00  1.039736602802E+00  1.052213442036E+00
  1.064840003340E+00  1.077618083380E+00  1.090549500381E+00  1.103636094385E+00
  1.116879727518E+00  1.130282284248E+00  1.143845671659E+00  1.157571819719E+00
  1.171462681555E+00  1.185520233734E+00  1.199746476539E+00  1.214143434257E+00
  1.228713155469E+00  1.243457713334E+00  1.258379205894E+00  1.273479756365E+00
  1.288761513441E+00  1.304226651603E+00  1.319877371422E+00  1.335715899879E+00
  1.351744490677E+00  1.367965424566E+00  1.384381009660E+00  1.400993581776E+00
  1.417805504758E+00  1.434819170815E+00  1.452037000864E+00  1.469461444875E+00
  1.487094982213E+00  1.504940122000E+00  1.522999403464E+00  1.541275396305E+00
  1.559770701061E+00  1.578487949474E+00  1.597429804868E+00  1.616598962526E+00
  1.635998150076E+00  1.655630127877E+00  1.675497689412E+00  1.695603661685E+00
  1.715950905625E+00  1.736542316492E+00  1.757380824290E+00  1.778469394182E+00
  1.799811026912E+00  1.821408759235E+00  1.843265664346E+00  1.865384852318E+00
  1.887769470546E+00  1.910422704192E+00  1.933347776642E+00  1.956547949962E+00
  1.980026525362E+00  2.003786843666E+00  2.027832285790E+00  2.052166273220E+00
  2.076792268498E+00  2.101713775720E+00  2.126934341029E+00  2.152457553121E+00
  2.178287043759E+00  2.204426488284E+00  2.230879606143E+00  2.257650161417E+00
  2.284741963354E+00  2.312158866914E+00  2.339904773317E+00  2.367983630597E+00
  2.396399434164E+00  2.425156227374E+00  2.454258102102E+00  2.483709199328E+00
  2.513513709720E+00  2.543675874236E+00  2.574199984727E+00  2.605090384544E+00
  2.636351469158E+00  2.667987686788E+00  2.700003539030E+00  2.732403581498E+00
  2.765192424476E+00  2.798374733570E+00  2.831955230373E+00  2.865938693137E+00
  2.900329957455E+00  2.935133916944E+00  2.970355523947E+00  3.005999790235E+00
  3.042071787718E+00  3.078576649170E+00  3.115519568960E+00  3.152905803788E+00
  3.190740673433E+00  3.229029561514E+00  3.267777916253E+00  3.306991251248E+00
  3.346675146263E+00  3.386835248018E+00  3.427477270994E+00  3.468606998246E+00
  3.510230282225E+00  3.552353045612E+00  3.594981282159E+00  3.638121057545E+00
  3.681778510235E+00  3.725959852358E+00  3.770671370587E+00  3.815919427034E+00
  3.861710460158E+00  3.908050985680E+00  3.954947597508E+00  4.002406968678E+00
  4.050435852302E+00  4.099041082530E+00  4.148229575520E+00  4.198008330426E+00
  4.248384430392E+00  4.299365043556E+00  4.350957424079E+00  4.403168913168E+00
  4.456006940126E+00  4.509479023407E+00  4.563592771688E+00  4.618355884949E+00
  4.673776155568E+00  4.729861469435E+00  4.786619807068E+00  4.844059244753E+00
  4.902187955690E+00  4.961014211158E+00  5.020546381692E+00  5.080792938272E+00
  5.141762453532E+00  5.203463602974E+00  5.265905166210E+00  5.329096028204E+00
  5.393045180543E+00  5.457761722709E+00  5.523254863382E+00  5.589533921742E+00
  5.656608328803E+00  5.724487628749E+00  5.793181480294E+00  5.862699658057E+00
  5.933052053954E+00  6.004248678601E+00  6.076299662745E+00  6.149215258698E+00
  6.223005841802E+00  6.297681911904E+00  6.373254094846E+00  6.449733143985E+00
  6.527129941712E+00  6.605455501013E+00  6.684720967025E+00  6.764937618629E+00
  6.846116870053E+00  6.928270272494E+00  7.011409515764E+00  7.095546429953E+00
  7.180692987112E+00  7.266861302957E+00  7.354063638593E+00  7.442312402256E+00
  7.531620151083E+00  7.621999592896E+00  7.713463588011E+00  7.806025151067E+00
  7.899697452880E+00  7.994493822314E+00  8.090427748182E+00  8.187512881160E+00
  8.285763035734E+00  8.385192192163E+00  8.485814498469E+00  8.587644272451E+00
  8.690696003720E+00  8.794984355765E+00  8.900524168034E+00  9.007330458050E+00
  9.115418423547E+00  9.224803444629E+00  9.335501085965E+00  9.447527098997E+00
  9.560897424185E+00  9.675628193275E+00  9.791735731594E+00  9.909236560373E+00
  1.002814739910E+01  1.014848516789E+01  1.027026698990E+01  1.039351019378E+01
  1.051823231611E+01  1.064445110390E+01  1.077218451715E+01  1.090145073135E+01
  1.103226814013E+01  1.116465535781E+01  1.129863122210E+01  1.143421479677E+01
  1.157142537433E+01  1.171028247882E+01  1.185080586857E+01  1.199301553899E+01
  1.213693172546E+01  1.228257490616E+01  1.242996580504E+01  1.257912539470E+01
  1.273007489943E+01  1.288283579823E+01  1.303742982781E+01  1.319387898574E+01
  1.335220553357E+01  1.351243199997E+01  1.367458118397E+01  1.383867615818E+01
  1.400474027208E+01  1.417279715534E+01  1.434287072121E+01  1.451498516986E+01
  1.468916499190E+01  1.486543497180E+01  1.504382019146E+01  1.522434603376E+01
  1.540703818617E+01  1.559192264440E+01  1.577902571613E+01  1.596837402473E+01
  1.615999451302E+01  1.635391444718E+01  1.655016142055E+01  1.674876335759E+01
  1.694974851788E+01  1.715314550010E+01  1.735898324610E+01  1.756729104505E+01
  1.777809853759E+01  1.799143572004E+01  1.820733294868E+01  1.842582094407E+01
  1.864693079540E+01  1.887069396494E+01  1.909714229252E+01  1.932630800003E+01
  1.955822369603E+01  1.979292238038E+01  2.003043744895E+01  2.027080269834E+01
  2.051405233072E+01  2.076022095868E+01  2.100934361019E+01  2.126145573351E+01
  2.151659320231E+01  2.177479232074E+01  2.203608982859E+01  2.230052290653E+01
  2.256812918141E+01  2.283894673159E+01  2.311301409237E+01  2.339037026148E+01
  2.367105470461E+01  2.395510736107E+01  2.424256864940E+01  2.453347947319E+01
  2.482788122687E+01  2.512581580160E+01  2.542732559121E+01  2.573245349831E+01
  2.604124294029E+01  2.635373785557E+01  2.666998270984E+01  2.699002250236E+01
  2.731390277239E+01  2.764166960565E+01  2.797336964092E+01  2.830905007661E+01
  2.864875867753E+01  2.899254378166E+01  2.934045430704E+01  2.969253975873E+01
  3.004885023583E+01  3.040943643866E+01  3.077434967593E+01  3.114364187204E+01
  3.151736557450E+01  3.189557396140E+01  3.227832084893E+01  3.266566069912E+01
  3.305764862751E+01  3.345434041104E+01  3.385579249597E+01  3.426206200592E+01
  3.467320674999E+01  3.508928523099E+01  3.551035665377E+01  3.593648093361E+01
  3.636771870482E+01  3.680413132927E+01  3.724578090522E+01  3.769273027609E+01
  3.814504303940E+01  3.860278355587E+01  3.906601695854E+01  3.953480916205E+01
  4.000922687199E+01  4.048933759445E+01  4.097520964559E+01  4.146691216133E+01
  4.196451510727E+01  4.246808928856E+01  4.297770636002E+01  4.349343883634E+01
  4.401536010238E+01
</grid-data>
</grid>
<valence-charge total-charge="20" is-unscreening-charge="yes"
 rescaled-to-z-pseudo="no">
<radfunc>
<data npts="457">
  6.190702224882E-01  6.215639947514E-01  6.290223308330E-01  6.414774489571E-01
  6.597804821435E-01  6.831812070079E-01  7.130809562125E-01  7.474228773406E-01
  7.861690824545E-01  8.315297088704E-01  8.828857608132E-01  9.389777641513E-01
  1.007143695622E+00  1.078772293797E+00  1.150769825366E+00  1.234245270428E+00
  1.331087892274E+00  1.423588709990E+00  1.528388828983E+00  1.647186872298E+00
  1.781927867584E+00  1.902686469496E+00  2.036357165808E+00  2.184377161823E+00
  2.348349024133E+00  2.530059010982E+00  2.731496796796E+00  2.896844333120E+00
  3.075552991309E+00  3.268729826291E+00  3.477570308127E+00  3.703363416281E+00
  3.947496406902E+00  4.211459036991E+00  4.496846973014E+00  4.805364044989E+00
  5.138822929082E+00  5.499143751687E+00  5.755276134071E+00  6.024868155206E+00
  6.308561049850E+00  6.607011773554E+00  6.920890649871E+00  7.250878458659E+00
  7.597662892199E+00  7.961934300401E+00  8.344380641187E+00  8.745681547584E+00
  9.166501419337E+00  9.607481444225E+00  1.006923045331E+01  1.055231451532E+01
  1.105724517879E+01  1.158446627749E+01  1.213433922484E+01  1.270712673802E+01
  1.330297495292E+01  1.392189391713E+01  1.456373648171E+01  1.522817565332E+01
  1.591468051816E+01  1.662249090761E+01  1.735059104438E+01  1.809768248584E+01
  1.886215677003E+01  1.964206826678E+01  2.043510784240E+01  2.083572351199E+01
  2.123857805836E+01  2.164326994604E+01  2.204937074010E+01  2.245642460297E+01
  2.286394786838E+01  2.327142870189E+01  2.367832685749E+01  2.408407354051E+01
  2.448807138671E+01  2.488969456829E+01  2.528828903709E+01  2.568317291572E+01
  2.607363704701E+01  2.645894571224E+01  2.683833752832E+01  2.721102653353E+01
  2.757620347126E+01  2.793303728035E+01  2.828067679984E+01  2.861825269524E+01
  2.894487961200E+01  2.925965856107E+01  2.956167953954E+01  2.985002438817E+01
  3.012376988569E+01  3.038199107772E+01  3.062376483648E+01  3.084817364457E+01
  3.105430959440E+01  3.124127859177E+01  3.140820474981E+01  3.155423495638E+01
  3.167854359554E+01  3.178033740057E+01  3.185886041301E+01  3.191339901949E+01
  3.194328703509E+01  3.194791079894E+01  3.192671424537E+01  3.187920391111E+01
  3.180495383675E+01  3.170361031838E+01  3.157489646366E+01  3.141861650495E+01
  3.123465982083E+01  3.102300461688E+01  3.078372121609E+01  3.051697490970E+01
  3.022302831982E+01  2.990224322699E+01  2.955508181743E+01  2.918210730761E+01
  2.878398390732E+01  2.836147608606E+01  2.791544711286E+01  2.744685684472E+01
  2.695675874552E+01  2.644629612380E+01  2.591669758594E+01  2.536927170915E+01
  2.480540094796E+01  2.422653479721E+01  2.363418224462E+01  2.302990355637E+01
  2.241530144962E+01  2.179201171688E+01  2.116169337749E+01  2.052601844242E+01
  1.988666138808E+01  1.924528844469E+01  1.860354681294E+01  1.796305393003E+01
  1.732538691206E+01  1.669207230376E+01  1.606457626875E+01  1.544429535331E+01
  1.483254795380E+01  1.423056661292E+01  1.363949126101E+01  1.306036350784E+01
  1.249412207556E+01  1.194159944599E+01  1.140351977500E+01  1.088049810320E+01
  1.037304086661E+01  9.881547682881E+00  9.406314359456E+00  8.947537040002E+00
  8.505317375629E+00  8.079668578889E+00  7.670522192575E+00  7.277735752285E+00
  6.901102168599E+00  6.540359860552E+00  6.195200655206E+00  5.865282451801E+00
  5.550244137441E+00  5.249708486395E+00  4.963282347256E+00  4.690555607207E+00
  4.431103744553E+00  4.184492026412E+00  3.950277894729E+00  3.728013749507E+00
  3.517249402652E+00  3.317534334054E+00  3.128419740887E+00  2.949460388073E+00
  2.780216265295E+00  2.620254059068E+00  2.469148448047E+00  2.326483230416E+00
  2.191852292560E+00  2.064860428504E+00  1.945124019719E+00  1.832271584980E+00
  1.725944209913E+00  1.625795865755E+00  1.531493626691E+00  1.442717794879E+00
  1.359161941998E+00  1.280532875819E+00  1.206550539950E+00  1.136947854491E+00
  1.071470504956E+00  1.009876686357E+00  9.519368089453E-01  8.974331716311E-01
  8.461596086930E-01  7.979211149293E-01  7.525334539875E-01  7.098227541877E-01
  6.696250957487E-01  6.317860929391E-01  5.961604743014E-01  5.626116637435E-01
  5.310113649593E-01  5.012391513220E-01  4.731820631041E-01  4.467342136024E-01
  4.217964054938E-01  3.982757585164E-01  3.760853493593E-01  3.551438644473E-01
  3.353752661376E-01  3.167084726860E-01  2.990770521990E-01  2.824189306700E-01
  2.666761140820E-01  2.517944244697E-01  2.377232497513E-01  2.244153070677E-01
  2.118264193124E-01  1.999153044846E-01  1.886433774581E-01  1.779745637301E-01
  1.678751246886E-01  1.583134939201E-01  1.492601240704E-01  1.406873437630E-01
  1.325692240806E-01  1.248814541157E-01  1.176012251053E-01  1.107071226701E-01
  1.041790266931E-01  9.799801838368E-02  9.214629408819E-02  8.660708542624E-02
  8.136458534573E-02  7.640387971007E-02  7.171088404779E-02  6.727228511400E-02
  6.307548693155E-02  5.910856099823E-02  5.536020036532E-02  5.181967731058E-02
  4.847680434679E-02  4.532189832430E-02  4.234574739754E-02  3.953958067331E-02
  3.689504029377E-02  3.440415582746E-02  3.205932077624E-02  2.985327104860E-02
  2.777906525580E-02  2.583006669680E-02  2.399992690602E-02  2.228257064513E-02
  2.067218222607E-02  1.916319305710E-02  1.775027030838E-02  1.642830659643E-02
  1.519241059064E-02  1.403789844760E-02  1.296028598223E-02  1.195528148815E-02
  1.101877912338E-02  1.014685278188E-02  9.335750375962E-03  8.581888460628E-03
  7.881847136046E-03  7.232365171371E-03  6.630335299368E-03  6.072799638270E-03
  5.556945204085E-03  5.080099483272E-03  4.639726042159E-03  4.233420155515E-03
  3.858904442286E-03  3.514024501528E-03  3.196744545988E-03  2.905143034596E-03
  2.637408308270E-03  2.391834235984E-03  2.166815879984E-03  1.960845190391E-03
  1.772506740325E-03  1.600473513054E-03  1.443502752710E-03  1.300431889739E-03
  1.170174551635E-03  1.051716668685E-03  9.441126833569E-04  8.464818708832E-04
  7.580047773017E-04  6.779197800010E-04  6.055197745318E-04  5.401489902452E-04
  4.811999361622E-04  4.281104774226E-04  3.803610417067E-04  3.374719541896E-04
  2.990008988767E-04  2.645405035854E-04  2.337160453744E-04  2.061832728766E-04
  1.816263417455E-04  1.597558592792E-04  1.403070342116E-04  1.230379276559E-04
  1.077278012265E-04  9.417555844827E-05  8.219827566679E-05  7.162981879101E-05
  6.231954232836E-05  5.413106729428E-05  4.694113469767E-05  4.063853141226E-05
  3.512308534208E-05  3.030472687485E-05  2.610261369236E-05  2.244431607134E-05
  1.926505986488E-05  1.650702440423E-05  1.411869260692E-05  1.205425062032E-05
  1.027303437344E-05  8.739020454603E-06  7.420358780238E-06  6.288944572095E-06
  5.320027216636E-06  4.491853642385E-06  3.785343918424E-06  3.183796850111E-06
  2.672623426127E-06  2.239106053720E-06  1.872181605865E-06  1.562246394337E-06
  1.300981275624E-06  1.081195191345E-06  8.966855406843E-07  7.421138783897E-07
  6.128955274427E-07  5.051017898790E-07  4.153735317409E-07  3.408450082622E-07
  2.790768825896E-07  2.279974752472E-07  1.858513617912E-07  1.511545124377E-07
  1.226552396721E-07  9.930028784699E-08  8.020546248068E-08  6.463025636704E-08
  5.195598474628E-08  4.166699273607E-08  3.333454510596E-08  2.660305143653E-08
  2.117831890678E-08  1.681756058507E-08  1.332091935853E-08  1.052429673085E-08
  8.293301860143E-09  6.518159609394E-09  5.109437252775E-09  3.994468031865E-09
  3.114366161119E-09  2.421305808103E-09  1.877477077907E-09  1.451723958572E-09
  1.119345408145E-09  8.605992175042E-10  6.597514941125E-10  5.042989735788E-10
  3.843346128682E-10  2.920316084961E-10  2.212249949605E-10  1.670733991089E-10
  1.257864322774E-10  9.440566271100E-11  7.062918706813E-11  5.267156571753E-11
  3.915234952657E-11  2.900764749127E-11  2.142020111457E-11  1.576427435595E-11
  1.156236444288E-11  8.451312249797E-12  6.155861365506E-12  4.468099495971E-12
  3.231529028188E-12  2.328767718466E-12  1.672085935785E-12  1.196152392584E-12
  8.524931059545E-13  6.052745069976E-13  4.281061737170E-13  3.016257458079E-13
  2.116815930096E-13  1.479705392396E-13  1.030206640229E-13  7.143475429092E-14
  4.932985326186E-14  3.392374763643E-14  2.323111021832E-14  1.584113848551E-14
  1.075550911297E-14  7.270785146694E-15  4.893445230617E-15  3.278749829501E-15
  2.186949347757E-15  1.452053251365E-15  9.596567735231E-16  6.312694854664E-16
  4.132898555642E-16  2.692843367446E-16  1.746058752328E-16  1.126607754520E-16
  7.233144579121E-17  4.620576614916E-17  2.936659573644E-17  1.856833208523E-17
  1.167957893463E-17  7.307844450837E-18  4.548117825732E-18  2.815312299303E-18
  1.733188199265E-18  1.061110522115E-18  6.460147027880E-19  3.910766167377E-19
  2.353907489217E-19  1.408624039054E-19  8.380089739767E-20  4.955864756803E-20
  2.913240784963E-20  1.702111637002E-20  9.883768958799E-21  5.703582691085E-21
  3.270624771860E-21  1.863539957692E-21  0.000000000000E+00  0.000000000000E+00
  0.000000000000E+00  0.000000000000E+00  0.000000000000E+00  0.000000000000E+00
  0.000000000000E+00  0.000000000000E+00  0.000000000000E+00  0.000000000000E+00
  0.000000000000E+00  0.000000000000E+00  0.000000000000E+00  0.000000000000E+00
  0.000000000000E+00  0.000000000000E+00  0.000000000000E+00  0.000000000000E+00
  0.000000000000E+00
</data>
</radfunc>
</valence-charge>
<pseudocore-charge matching-radius="0.579533066253"
 number-of-continuous-derivatives="4">
<annotation model-charge-form="Teter function with specified parameters" />
<radfunc>
<data npts="290">
  1.977378414253E+02  1.977082446163E+02  1.976197839902E+02  1.974722485920E+02
  1.972558724126E+02  1.969799724409E+02  1.966286465915E+02  1.962267677933E+02
  1.957754330049E+02  1.952498201300E+02  1.946582868690E+02  1.940164392461E+02
  1.932422702560E+02  1.924355301682E+02  1.916314528663E+02  1.907075417447E+02
  1.896466286578E+02  1.886439561509E+02  1.875201999165E+02  1.862615821600E+02
  1.848529837638E+02  1.836070606216E+02  1.822454653010E+02  1.807584535823E+02
  1.791356688788E+02  1.773661499163E+02  1.754383513616E+02  1.738813760855E+02
  1.722232903407E+02  1.704586702619E+02  1.685819773674E+02  1.665875871404E+02
  1.644698238551E+02  1.622230024143E+02  1.598414779980E+02  1.573197043516E+02
  1.546523015470E+02  1.518341340395E+02  1.498692094708E+02  1.478338151451E+02
  1.457267311989E+02  1.435468537244E+02  1.412932116383E+02  1.389649846835E+02
  1.365615225568E+02  1.340823651399E+02  1.315272637928E+02  1.288962036487E+02
  1.261894268254E+02  1.234074564398E+02  1.205511212836E+02  1.176215809835E+02
  1.146203514293E+02  1.115493302165E+02  1.084108218009E+02  1.052075620173E+02
  1.019427415630E+02  9.862002799387E+01  9.524358572651E+01  9.181809348472E+01
  8.834875857590E+01  8.484132733038E+01  8.130209099066E+01  7.773788629724E+01
  7.415608998756E+01  7.056460640619E+01  6.697184742299E+01  6.517775029918E+01
  6.338670387353E+01  6.159988814228E+01  5.981850777780E+01  5.804379039716E+01
  5.627698466290E+01  5.451935821299E+01  5.277219541738E+01  5.103679495967E+01
  4.931446724285E+01  4.760653161946E+01  4.591431344719E+01  4.423914097234E+01
  4.258234204463E+01  4.094524066823E+01  3.932915339518E+01  3.773538556902E+01
  3.616522742793E+01  3.461995007822E+01  3.310080135087E+01  3.160900155552E+01
  3.014573914810E+01  2.871216633020E+01  2.730939459998E+01  2.593849027652E+01
  2.460047002119E+01  2.329629638145E+01  2.202687338433E+01  2.079304220829E+01
  1.959557696412E+01  1.843518061637E+01  1.731248107865E+01  1.622802751665E+01
  1.518228689387E+01  1.417564079540E+01  1.320838256537E+01  1.228071479357E+01
  1.139274718612E+01  1.054449485440E+01  9.735877054814E+00  8.966716410438E+00
  8.236738643072E+00  7.545572841548E+00  6.892752288798E+00  6.277715866298E+00
  5.699810050175E+00  5.158291508338E+00  4.652330302614E+00  4.181013694018E+00
  3.743350542985E+00  3.338276289714E+00  2.964658492844E+00  2.621302897403E+00
  2.306959995675E+00  2.020332037198E+00  1.760080436785E+00  1.524833522360E+00
  1.313194557576E+00  1.123749967897E+00  9.550776931451E-01  8.057555845836E-01
  6.743697606889E-01  5.595228328333E-01  4.598419104720E-01  3.739862951122E-01
  3.006547735069E-01  2.385924232355E-01  1.865968481797E-01  1.435237674058E-01
  1.082918886190E-01  7.988700663203E-02  5.736527808859E-02  3.985563588371E-02
  2.656132014615E-02  1.676051706591E-02  9.806111995579E-03  5.124578812741E-03
  2.214043151221E-03  6.415724116622E-04  3.976004240388E-05  1.026850275947E-04
  5.813394185864E-04  1.278626701412E-03  2.044041442967E-03  2.768145683843E-03
  3.376959691898E-03  3.826383780970E-03  4.096763848869E-03  4.187706116232E-03
  4.113236383305E-03  3.897386211009E-03  3.570273137796E-03  3.164724836345E-03
  2.713478564713E-03  2.246968026898E-03  1.791690538074E-03  1.369128930318E-03
  9.951856732303E-04  6.800719198234E-04  4.285822458651E-04  2.406772427851E-04
  1.122912177279E-04  3.628124298466E-05  3.436680573711E-06  3.474881080427E-06
  2.595861020070E-05  6.108329322032E-05  1.002966259747E-04  1.367285976292E-04
  1.654255523759E-04  1.833966202000E-04  1.894937628138E-04  1.841570223683E-04
  1.690637224647E-04  1.467239812320E-04  1.200648512201E-04  9.204188111259E-05
  6.531035675715E-05  4.197962522526E-05  2.346362571032E-05  1.043004790752E-05
  2.840436846646E-06  6.501222157604E-08  1.049749185620E-06  4.509903794133E-06
  9.123877016375E-06  1.370397638202E-05  1.732580604507E-05  1.940496689247E-05
  1.971755468133E-05  1.836859718112E-05  1.571910282414E-05  1.228700167231E-05
  8.639417184447E-06  5.293235464774E-06  2.638034598829E-06  8.906472988885E-07
  8.477249045428E-08  0.000000000000E+00  0.000000000000E+00  0.000000000000E+00
  0.000000000000E+00  0.000000000000E+00  0.000000000000E+00  0.000000000000E+00
  0.000000000000E+00  0.000000000000E+00  0.000000000000E+00  0.000000000000E+00
  0.000000000000E+00  0.000000000000E+00  0.000000000000E+00  0.000000000000E+00
  0.000000000000E+00  0.000000000000E+00  0.000000000000E+00  0.000000000000E+00
  0.000000000000E+00  0.000000000000E+00  0.000000000000E+00  0.000000000000E+00
  0.000000000000E+00  0.000000000000E+00  0.000000000000E+00  0.000000000000E+00
  0.000000000000E+00  0.000000000000E+00  0.000000000000E+00  0.000000000000E+00
  0.000000000000E+00  0.000000000000E+00  0.000000000000E+00  0.000000000000E+00
  0.000000000000E+00  0.000000000000E+00  0.000000000000E+00  0.000000000000E+00
  0.000000000000E+00  0.000000000000E+00  0.000000000000E+00  0.000000000000E+00
  0.000000000000E+00  0.000000000000E+00  0.000000000000E+00  0.000000000000E+00
  0.000000000000E+00  0.000000000000E+00  0.000000000000E+00  0.000000000000E+00
  0.000000000000E+00  0.000000000000E+00  0.000000000000E+00  0.000000000000E+00
  0.000000000000E+00  0.000000000000E+00  0.000000000000E+00  0.000000000000E+00
  0.000000000000E+00  0.000000000000E+00  0.000000000000E+00  0.000000000000E+00
  0.000000000000E+00  0.000000000000E+00  0.000000000000E+00  0.000000000000E+00
  0.000000000000E+00  0.000000000000E+00  0.000000000000E+00  0.000000000000E+00
  0.000000000000E+00  0.000000000000E+00  0.000000000000E+00  0.000000000000E+00
  0.000000000000E+00  0.000000000000E+00  0.000000000000E+00  0.000000000000E+00
  0.000000000000E+00  0.000000000000E+00  0.000000000000E+00  0.000000000000E+00
  0.000000000000E+00  0.000000000000E+00
</data>
</radfunc>
</pseudocore-charge>
<semilocal-potentials set="scalar_relativistic">
<slps n="4" l="s" rc="1.25837920589" eref="-3.88839294470">
<radfunc>
<data npts="290">
  2.664073746347E+01  2.661148732546E+01  2.652419943958E+01  2.637907450733E+01
  2.616725537889E+01  2.589891376644E+01  2.556001676966E+01  2.517615545744E+01
  2.474981445180E+01  2.425954195236E+01  2.371564217110E+01  2.313468649100E+01
  2.244639066114E+01  2.174319597887E+01  2.105618124987E+01  2.028333464183E+01
  1.941699139795E+01  1.861820978174E+01  1.774520453758E+01  1.679424469598E+01
  1.576211682772E+01  1.487624922312E+01  1.393590182579E+01  1.294059310285E+01
  1.189032062689E+01  1.078561919798E+01  9.627613767412E+00  8.725162878372E+00
  7.794693499179E+00  6.837412087264E+00  5.854745781359E+00  4.848342357545E+00
  3.820067031164E+00  2.771995961489E+00  1.706406402310E+00  6.257635380958E-01
 -4.672958512807E-01 -1.569982648240E+00 -2.309018607668E+00 -3.050145574658E+00
 -3.792453387648E+00 -4.535017594303E+00 -5.276902965698E+00 -6.017167039303E+00
 -6.754863650836E+00 -7.489046414620E+00 -8.218772112322E+00 -8.943103950758E+00
 -9.661114651003E+00 -1.037188933308E+01 -1.107452816317E+01 -1.176814873343E+01
 -1.245188814812E+01 -1.312490479375E+01 -1.378637977516E+01 -1.443551800434E+01
 -1.507154893324E+01 -1.569372692704E+01 -1.630133127964E+01 -1.689366587792E+01
 -1.747005852736E+01 -1.802985995680E+01 -1.857244252595E+01 -1.909719866575E+01
 -1.960353908751E+01 -2.009089080437E+01 -2.055869501557E+01 -2.078509552090E+01
 -2.100640491231E+01 -2.122255635042E+01 -2.143348347266E+01 -2.163912032918E+01
 -2.183940132188E+01 -2.203426114722E+01 -2.222363474360E+01 -2.240745724420E+01
 -2.258566393592E+01 -2.275819022545E+01 -2.292497161316E+01 -2.308594367560E+01
 -2.324104205753E+01 -2.339020247400E+01 -2.353336072320E+01 -2.367045271076E+01
 -2.380141448557E+01 -2.392618228783E+01 -2.404469260900E+01 -2.415688226388E+01
 -2.426268847434E+01 -2.436204896424E+01 -2.445490206480E+01 -2.454118682948E+01
 -2.462084315732E+01 -2.469381192344E+01 -2.476003511554E+01 -2.481945597499E+01
 -2.487201914156E+01 -2.491767080061E+01 -2.495635883233E+01 -2.498803296270E+01
 -2.501264491642E+01 -2.503014857268E+01 -2.504050012507E+01 -2.504365824769E+01
 -2.503958426972E+01 -2.502824236154E+01 -2.500959973534E+01 -2.498362686362E+01
 -2.495029771884E+01 -2.490959003715E+01 -2.486148560898E+01 -2.480597059853E+01
 -2.474303589376E+01 -2.467267748757E+01 -2.459489689031E+01 -2.450970157294E+01
 -2.441710543939E+01 -2.431712932608E+01 -2.420980152617E+01 -2.409515833530E+01
 -2.397324461570E+01 -2.384411437520E+01 -2.370783135761E+01 -2.356446964162E+01
 -2.341411424530E+01 -2.325686173455E+01 -2.309282083460E+01 -2.292211304499E+01
 -2.274487326020E+01 -2.256125039996E+01 -2.237140805518E+01 -2.217552515813E+01
 -2.197379668784E+01 -2.176643442428E+01 -2.155366776774E+01 -2.133574464267E+01
 -2.111293250779E+01 -2.088551949721E+01 -2.065381571985E+01 -2.041815474673E+01
 -2.017889531796E+01 -1.993642330275E+01 -1.969115394642E+01 -1.944353443848E+01
 -1.919404683359E+01 -1.894321135362E+01 -1.869159009213E+01 -1.843979113231E+01
 -1.818847307456E+01 -1.793834994940E+01 -1.769019646477E+01 -1.744485350229E+01