<?xml version="1.0" encoding="UTF-8" ?>
<psml version="1.1" energy_unit="hartree" length_unit="bohr"
 uuid="e196a9d0-1d65-11e8-5aa4-da40dbafae20"
 xmlns="http://esl.cecam.org/PSML/ns/1.1">
<provenance creator="ONCVPSP-3.3.0+psml-3.3.0-73 (scalar-relativistic)"
 date="2018-03-01">
<annotation action="semilocal-pseudopotential-generation"
 action-cont="projectors-generation" />
<input-file name="oncvpsp-input">
<![CDATA[# atsym z nc nv iexc psfile
Cd 48 6 4 -116133 upf
# n l f
1 0 2.0
2 0 2.0
2 1 6.0
3 0 2.0
3 1 6.0
3 2 10.0
4 0 2.0
4 1 6.0
4 2 10.0
5 0 2.0
# lmax
2
# l rc ep ncon nbas qcut
0 1.2 0.0 4 8 10.2
1 1.2 0.0 4 8 11.2
2 1.25 0.0 4 8 11.2
# lloc lpopt rc5 dvloc0
4 5 1.15 0.0
# l nproj debl
0 2 2.0
1 2 2.0
2 2 2.0
# icmod fcfact rcfact
3 6.0 1.26
# epsh1 epsh2 depsh
-12.0 12.0 0.02
# rlmax drl
6.0 0.01
 0
]]>
</input-file>
</provenance>
<pseudo-atom-spec atomic-label="Cd" atomic-number="48" z-pseudo="20"
 flavor="Hamann&apos;s oncvpsp" relativity="scalar" spin-dft="no"
 core-corrections="yes">
<annotation pseudo-energy="-167.753529942" />
<exchange-correlation>
<annotation oncvpsp-xc-code="-116133" oncvpsp-xc-type="libxc-interface" />
<libxc-info number-of-functionals="2">
<functional name="Perdew, Burke &amp; Ernzerhof SOL (GGA)" type="exchange"
 id="116" />
<functional name="Perdew, Burke &amp; Ernzerhof SOL (GGA)" type="correlation"
 id="133" />
</libxc-info>
</exchange-correlation>
<valence-configuration total-valence-charge="20">
<shell n="4" l="s" occupation="2" />
<shell n="4" l="p" occupation="6" />
<shell n="4" l="d" occupation="10" />
<shell n="5" l="s" occupation="2" />
</valence-configuration>
</pseudo-atom-spec>
<grid npts="457">
<annotation type="sampled from oncvpsp log grid"
 recipe="r(i:1..N) = r1*exp(a*(i-1)) + r=0; resampled"
 recipe-cont="r1: scale; a: step" scale="0.104166666667E-04"
 step="0.119285708653E-01" delta="0.500000000000E-02" rmax="44.0153601024" />
<grid-data>
  0.000000000000E+00  5.026136093974E-03  1.003931241072E-02  1.506056948927E-02
  2.029337154766E-02  2.545563554462E-02  3.080861283122E-02  3.597649143716E-02
  4.102083010503E-02  4.621783200185E-02  5.145578192561E-02  5.660806138672E-02
  6.227623979354E-02  6.769957927664E-02  7.272254093181E-02  7.811818058674E-02
  8.391414903812E-02  8.907129311261E-02  9.454538177047E-02  1.003558935966E-01
  1.065235042789E-01  1.117294072913E-01  1.171897276397E-01  1.229168989365E-01
  1.289239624366E-01  1.352245967329E-01  1.418331489041E-01  1.470006592726E-01
  1.523564413084E-01  1.579073544501E-01  1.636605080513E-01  1.696232704860E-01
  1.758032785853E-01  1.822084474188E-01  1.888469804314E-01  1.957273799500E-01
  2.028584580733E-01  2.102493479572E-01  2.153256082143E-01  2.205244296990E-01
  2.258487715297E-01  2.313016642695E-01  2.368862116516E-01  2.426055923457E-01
  2.484630617673E-01  2.544619539307E-01  2.606056833464E-01  2.668977469651E-01
  2.733417261678E-01  2.799412888044E-01  2.867001912813E-01  2.936222806996E-01
  3.007114970448E-01  3.079718754294E-01  3.154075483898E-01  3.230227482381E-01
  3.308218094716E-01  3.388091712395E-01  3.469893798699E-01  3.553670914575E-01
  3.639470745136E-01  3.727342126807E-01  3.817335075116E-01  3.909500813170E-01
  4.003891800803E-01  4.100561764442E-01  4.199565727682E-01  4.249960516415E-01
  4.300960042611E-01  4.352571563123E-01  4.404802421880E-01  4.457660050943E-01
  4.511151971554E-01  4.565285795213E-01  4.620069224755E-01  4.675510055452E-01
  4.731616176118E-01  4.788395570231E-01  4.845856317074E-01  4.904006592879E-01
  4.962854671994E-01  5.022408928057E-01  5.082677835194E-01  5.143669969216E-01
  5.205394008847E-01  5.267858736953E-01  5.331073041797E-01  5.395045918298E-01
  5.459786469318E-01  5.525303906950E-01  5.591607553833E-01  5.658706844479E-01
  5.726611326613E-01  5.795330662532E-01  5.864874630482E-01  5.935253126048E-01
  6.006476163561E-01  6.078553877524E-01  6.151496524054E-01  6.225314482343E-01
  6.300018256131E-01  6.375618475204E-01  6.452125896907E-01  6.529551407670E-01
  6.607906024562E-01  6.687200896856E-01  6.767447307619E-01  6.848656675310E-01
  6.930840555414E-01  7.014010642079E-01  7.098178769784E-01  7.183356915021E-01
  7.269557198001E-01  7.356791884377E-01  7.445073386990E-01  7.534414267634E-01
  7.624827238845E-01  7.716325165711E-01  7.808921067700E-01  7.902628120512E-01
  7.997459657959E-01  8.093429173854E-01  8.190550323940E-01  8.288836927828E-01
  8.388302970962E-01  8.488962606613E-01  8.590830157892E-01  8.693920119787E-01
  8.798247161225E-01  8.903826127159E-01  9.010672040685E-01  9.118800105173E-01
  9.228225706435E-01  9.338964414913E-01  9.451031987892E-01  9.564444371746E-01
  9.679217704207E-01  9.795368316658E-01  9.912912736458E-01  1.003186768930E+00
  1.015225010157E+00  1.027407710279E+00  1.039736602802E+00  1.052213442036E+00
  1.064840003340E+00  1.077618083380E+00  1.090549500381E+00  1.103636094385E+00
  1.116879727518E+00  1.130282284248E+00  1.143845671659E+00  1.157571819719E+00
  1.171462681555E+00  1.185520233734E+00  1.199746476539E+00  1.214143434257E+00
  1.228713155469E+00  1.243457713334E+00  1.258379205894E+00  1.273479756365E+00
  1.288761513441E+00  1.304226651603E+00  1.319877371422E+00  1.335715899879E+00
  1.351744490677E+00  1.367965424566E+00  1.384381009660E+00  1.400993581776E+00
  1.417805504758E+00  1.434819170815E+00  1.452037000864E+00  1.469461444875E+00
  1.487094982213E+00  1.504940122000E+00  1.522999403464E+00  1.541275396305E+00
  1.559770701061E+00  1.578487949474E+00  1.597429804868E+00  1.616598962526E+00
  1.635998150076E+00  1.655630127877E+00  1.675497689412E+00  1.695603661685E+00
  1.715950905625E+00  1.736542316492E+00  1.757380824290E+00  1.778469394182E+00
  1.799811026912E+00  1.821408759235E+00  1.843265664346E+00  1.865384852318E+00
  1.887769470546E+00  1.910422704192E+00  1.933347776642E+00  1.956547949962E+00
  1.980026525362E+00  2.003786843666E+00  2.027832285790E+00  2.052166273220E+00
  2.076792268498E+00  2.101713775720E+00  2.126934341029E+00  2.152457553121E+00
  2.178287043759E+00  2.204426488284E+00  2.230879606143E+00  2.257650161417E+00
  2.284741963354E+00  2.312158866914E+00  2.339904773317E+00  2.367983630597E+00
  2.396399434164E+00  2.425156227374E+00  2.454258102102E+00  2.483709199328E+00
  2.513513709720E+00  2.543675874236E+00  2.574199984727E+00  2.605090384544E+00
  2.636351469158E+00  2.667987686788E+00  2.700003539030E+00  2.732403581498E+00
  2.765192424476E+00  2.798374733570E+00  2.831955230373E+00  2.865938693137E+00
  2.900329957455E+00  2.935133916944E+00  2.970355523947E+00  3.005999790235E+00
  3.042071787718E+00  3.078576649170E+00  3.115519568960E+00  3.152905803788E+00
  3.190740673433E+00  3.229029561514E+00  3.267777916253E+00  3.306991251248E+00
  3.346675146263E+00  3.386835248018E+00  3.427477270994E+00  3.468606998246E+00
  3.510230282225E+00  3.552353045612E+00  3.594981282159E+00  3.638121057545E+00
  3.681778510235E+00  3.725959852358E+00  3.770671370587E+00  3.815919427034E+00
  3.861710460158E+00  3.908050985680E+00  3.954947597508E+00  4.002406968678E+00
  4.050435852302E+00  4.099041082530E+00  4.148229575520E+00  4.198008330426E+00
  4.248384430392E+00  4.299365043556E+00  4.350957424079E+00  4.403168913168E+00
  4.456006940126E+00  4.509479023407E+00  4.563592771688E+00  4.618355884949E+00
  4.673776155568E+00  4.729861469435E+00  4.786619807068E+00  4.844059244753E+00
  4.902187955690E+00  4.961014211158E+00  5.020546381692E+00  5.080792938272E+00
  5.141762453532E+00  5.203463602974E+00  5.265905166210E+00  5.329096028204E+00
  5.393045180543E+00  5.457761722709E+00  5.523254863382E+00  5.589533921742E+00
  5.656608328803E+00  5.724487628749E+00  5.793181480294E+00  5.862699658057E+00
  5.933052053954E+00  6.004248678601E+00  6.076299662745E+00  6.149215258698E+00
  6.223005841802E+00  6.297681911904E+00  6.373254094846E+00  6.449733143985E+00
  6.527129941712E+00  6.605455501013E+00  6.684720967025E+00  6.764937618629E+00
  6.846116870053E+00  6.928270272494E+00  7.011409515764E+00  7.095546429953E+00
  7.180692987112E+00  7.266861302957E+00  7.354063638593E+00  7.442312402256E+00
  7.531620151083E+00  7.621999592896E+00  7.713463588011E+00  7.806025151067E+00
  7.899697452880E+00  7.994493822314E+00  8.090427748182E+00  8.187512881160E+00
  8.285763035734E+00  8.385192192163E+00  8.485814498469E+00  8.587644272451E+00
  8.690696003720E+00  8.794984355765E+00  8.900524168034E+00  9.007330458050E+00
  9.115418423547E+00  9.224803444629E+00  9.335501085965E+00  9.447527098997E+00
  9.560897424185E+00  9.675628193275E+00  9.791735731594E+00  9.909236560373E+00
  1.002814739910E+01  1.014848516789E+01  1.027026698990E+01  1.039351019378E+01
  1.051823231611E+01  1.064445110390E+01  1.077218451715E+01  1.090145073135E+01
  1.103226814013E+01  1.116465535781E+01  1.129863122210E+01  1.143421479677E+01
  1.157142537433E+01  1.171028247882E+01  1.185080586857E+01  1.199301553899E+01
  1.213693172546E+01  1.228257490616E+01  1.242996580504E+01  1.257912539470E+01
  1.273007489943E+01  1.288283579823E+01  1.303742982781E+01  1.319387898574E+01
  1.335220553357E+01  1.351243199997E+01  1.367458118397E+01  1.383867615818E+01
  1.400474027208E+01  1.417279715534E+01  1.434287072121E+01  1.451498516986E+01
  1.468916499190E+01  1.486543497180E+01  1.504382019146E+01  1.522434603376E+01
  1.540703818617E+01  1.559192264440E+01  1.577902571613E+01  1.596837402473E+01
  1.615999451302E+01  1.635391444718E+01  1.655016142055E+01  1.674876335759E+01
  1.694974851788E+01  1.715314550010E+01  1.735898324610E+01  1.756729104505E+01
  1.777809853759E+01  1.799143572004E+01  1.820733294868E+01  1.842582094407E+01
  1.864693079540E+01  1.887069396494E+01  1.909714229252E+01  1.932630800003E+01
  1.955822369603E+01  1.979292238038E+01  2.003043744895E+01  2.027080269834E+01
  2.051405233072E+01  2.076022095868E+01  2.100934361019E+01  2.126145573351E+01
  2.151659320231E+01  2.177479232074E+01  2.203608982859E+01  2.230052290653E+01
  2.256812918141E+01  2.283894673159E+01  2.311301409237E+01  2.339037026148E+01
  2.367105470461E+01  2.395510736107E+01  2.424256864940E+01  2.453347947319E+01
  2.482788122687E+01  2.512581580160E+01  2.542732559121E+01  2.573245349831E+01
  2.604124294029E+01  2.635373785557E+01  2.666998270984E+01  2.699002250236E+01
  2.731390277239E+01  2.764166960565E+01  2.797336964092E+01  2.830905007661E+01
  2.864875867753E+01  2.899254378166E+01  2.934045430704E+01  2.969253975873E+01
  3.004885023583E+01  3.040943643866E+01  3.077434967593E+01  3.114364187204E+01
  3.151736557450E+01  3.189557396140E+01  3.227832084893E+01  3.266566069912E+01
  3.305764862751E+01  3.345434041104E+01  3.385579249597E+01  3.426206200592E+01
  3.467320674999E+01  3.508928523099E+01  3.551035665377E+01  3.593648093361E+01
  3.636771870482E+01  3.680413132927E+01  3.724578090522E+01  3.769273027609E+01
  3.814504303940E+01  3.860278355587E+01  3.906601695854E+01  3.953480916205E+01
  4.000922687199E+01  4.048933759445E+01  4.097520964559E+01  4.146691216133E+01
  4.196451510727E+01  4.246808928856E+01  4.297770636002E+01  4.349343883634E+01
  4.401536010238E+01
</grid-data>
</grid>
<valence-charge total-charge="20" is-unscreening-charge="yes"
 rescaled-to-z-pseudo="no">
<radfunc>
<data npts="457">
  1.615466581605E-01  1.630587965788E-01  1.675848520941E-01  1.751550930871E-01
  1.863066229559E-01  2.006103985275E-01  2.189618079802E-01  2.401425523544E-01
  2.641701935526E-01  2.924730850942E-01  3.247392287344E-01  3.602461615293E-01
  4.037616749344E-01  4.499107820806E-01  4.967246940731E-01  5.515250396090E-01
  6.157866354646E-01  6.778361887142E-01  7.489030248525E-01  8.304172392165E-01
  9.240577023181E-01  1.009015815764E+00  1.104158921160E+00  1.210817472852E+00
  1.330507133903E+00  1.464954139841E+00  1.616123408376E+00  1.741807432010E+00
  1.879201219763E+00  2.029461763256E+00  2.193858889524E+00  2.373784107521E+00
  2.570759451225E+00  2.786446087032E+00  3.022652382166E+00  3.281341045668E+00
  3.564634852585E+00  3.874820343796E+00  4.097754259635E+00  4.334492657787E+00
  4.585833293412E+00  4.852603812936E+00  5.135659852462E+00  5.435882483470E+00
  5.754174910097E+00  6.091458314214E+00  6.448666736694E+00  6.826740875994E+00
  7.226620678836E+00  7.649236592637E+00  8.095499346152E+00  8.566288123821E+00
  9.062437001566E+00  9.584719517734E+00  1.013383126364E+01  1.071037039457E+01
  1.131481598522E+01  1.194750418457E+01  1.260860216531E+01  1.329807991315E+01
  1.401567996300E+01  1.476088526325E+01  1.553288543660E+01  1.633054180719E+01
  1.715235167904E+01  1.799641247971E+01  1.886038652451E+01  1.929898316761E+01
  1.974146730843E+01  2.018740977230E+01  2.063634839253E+01  2.108778726806E+01
  2.154119611392E+01  2.199600971678E+01  2.245162750842E+01  2.290741327055E+01
  2.336269498449E+01  2.381676484005E+01  2.426887941762E+01  2.471826005804E+01
  2.516409343471E+01  2.560553234219E+01  2.604169671535E+01  2.647167489283E+01
  2.689452513768E+01  2.730927742754E+01  2.771493552549E+01  2.811047934163E+01
  2.849486759386E+01  2.886704077472E+01  2.922592442904E+01  2.957043274506E+01
  2.989947245909E+01  3.021194707100E+01  3.050676136482E+01  3.078282622546E+01
  3.103906373884E+01  3.127441255923E+01  3.148783352332E+01  3.167831548664E+01
  3.184488135329E+01  3.198659426599E+01  3.210256391867E+01  3.219195294934E+01
  3.225398336692E+01  3.228794296112E+01  3.229319164069E+01  3.226916764135E+01
  3.221539354178E+01  3.213148202279E+01  3.201714130271E+01  3.187218018048E+01
  3.169651261681E+01  3.149016178420E+01  3.125326351705E+01  3.098606909558E+01
  3.068894729989E+01  3.036238567516E+01  3.000699095385E+01  2.962348858805E+01
  2.921272135226E+01  2.877564698651E+01  2.831333485947E+01  2.782696164266E+01
  2.731780599886E+01  2.678724230101E+01  2.623673341122E+01  2.566782256379E+01
  2.508212441021E+01  2.448131529829E+01  2.386712287150E+01  2.324131508758E+01
  2.260568876770E+01  2.196205779852E+01  2.131224111849E+01  2.065805062736E+01
  2.000127916282E+01  1.934368869104E+01  1.868699885778E+01  1.803287604386E+01
  1.738292306322E+01  1.673866963257E+01  1.610156373034E+01  1.547296394763E+01
  1.485413291699E+01  1.424623188497E+01  1.365031647319E+01  1.306733364964E+01
  1.249811990821E+01  1.194340063049E+01  1.140379058043E+01  1.087979546059E+01
  1.037181443842E+01  9.880143535182E+00  9.404979759240E+00  8.946425858295E+00
  8.504497269985E+00  8.079136325840E+00  7.670230987663E+00  7.277618431113E+00
  6.901089273803E+00  6.540392656272E+00  6.195240979385E+00  5.865314178801E+00
  5.550263859708E+00  5.249717258854E+00  4.963280993263E+00  4.690544603694E+00
  4.431083884946E+00  4.184464000139E+00  3.950242377811E+00  3.727971392458E+00
  3.517200830752E+00  3.317480147235E+00  3.128360513656E+00  2.949396669493E+00
  2.780148579033E+00  2.620182903492E+00  2.469074296389E+00  2.326406530989E+00
  2.191773469036E+00  2.064779880238E+00  1.945042122134E+00  1.832188689998E+00
  1.725860646431E+00  1.625711940169E+00  1.531409623459E+00  1.442633977122E+00
  1.359078552132E+00  1.280450136223E+00  1.206468653656E+00  1.136867005897E+00
  1.071390860559E+00  1.009798395502E+00  9.518600045834E-01  8.973579710889E-01
  8.460861144438E-01  7.978494153663E-01  7.524636241958E-01  7.097548567102E-01
  6.695591813450E-01  6.317222013338E-01  5.960986349189E-01  5.625518964288E-01
  5.309536806805E-01  5.011835528548E-01  4.731285456954E-01  4.466827656118E-01
  4.217470090121E-01  3.982283899607E-01  3.760399800420E-01  3.551004611204E-01
  3.353337915111E-01  3.166688859195E-01  2.990393093677E-01  2.823829852037E-01
  2.666419171783E-01  2.517619254814E-01  2.376923965478E-01  2.243860463716E-01
  2.117986970119E-01  1.998890659216E-01  1.886185676933E-01  1.779511277859E-01
  1.678530077702E-01  1.582926416161E-01  1.492404825334E-01  1.406688598716E-01
  1.325518455830E-01  1.248651297567E-01  1.175859047370E-01  1.106927573474E-01
  1.041655687552E-01  9.798542152200E-02  9.213451340222E-02  8.659607746774E-02
  8.135430815233E-02  7.639429282911E-02  7.170194855119E-02  6.726396360499E-02
  6.306774354392E-02  5.910136138893E-02  5.535351170103E-02  5.181346824891E-02
  4.847104501279E-02  4.531656028273E-02  4.234080362159E-02  3.953500551024E-02
  3.689080942783E-02  3.440024624074E-02  3.205571070770E-02  2.984993995167E-02
  2.777599375502E-02  2.582723654363E-02  2.399732093424E-02  2.228017272608E-02
  2.066997722384E-02  1.916116678409E-02  1.774840948116E-02  1.642659879229E-02
  1.519084420485E-02  1.403646265152E-02  1.295897068238E-02  1.195407728641E-02
  1.101767727830E-02  1.014584517115E-02  9.334829460246E-03  8.581047248632E-03
  7.881079150967E-03  7.231664418697E-03  6.629696236065E-03  6.072217143350E-03
  5.556414550563E-03  5.079616311499E-03  4.639286334516E-03  4.233020212455E-03
  3.858540859690E-03  3.513694149346E-03  3.196444548137E-03  2.904870750070E-03
  2.637161313429E-03  2.391610307973E-03  2.166612981237E-03  1.960661454177E-03
  1.772340457283E-03  1.600323118679E-03  1.443366815729E-03  1.300309101332E-03
  1.170063715464E-03  1.051616691664E-03  9.440225671381E-04  8.464007039937E-04
  7.579317279053E-04  6.778540892309E-04  6.054607503591E-04  5.400960018432E-04
  4.811524087301E-04  4.280678874347E-04  3.803229125526E-04  3.374378521766E-04
  2.989704295639E-04  2.645133084236E-04  2.336917986271E-04  2.061616787970E-04
  1.816071319905E-04  1.597387905388E-04  1.402918860366E-04  1.230245004661E-04
  1.077159144856E-04  9.416504899009E-05  8.218899616066E-05  7.162163633479E-05
  6.231233715823E-05  5.412473160173E-05  4.693557154487E-05  4.063365373786E-05
  3.511881504997E-05  3.030099399937E-05  2.609935563380E-05  2.244147689614E-05
  1.926258966546E-05  1.650487871378E-05  1.411683186483E-05  1.205263968430E-05
  1.027164207466E-05  8.737819192539E-06  7.419324154062E-06  6.288055045720E-06
  5.319263814772E-06  4.491199675090E-06  3.784784731865E-06  3.183319601371E-06
  2.672216880073E-06  2.238760400073E-06  1.871888294746E-06  1.561997988698E-06
  1.300771319053E-06  1.081018089891E-06  8.965364574073E-07  7.419886394522E-07
  6.127905386578E-07  5.050139626975E-07  4.153002177536E-07  3.407839413594E-07
  2.790261279973E-07  2.279553847210E-07  1.858165343141E-07  1.511257598239E-07
  1.226315565356E-07  9.928082544246E-08  8.018950597161E-08  6.461720512042E-08
  5.194533529242E-08  4.165832406969E-08  3.332750603864E-08  2.659734974177E-08
  2.117371202751E-08  1.681384769927E-08  1.331793462216E-08  1.052190353866E-08
  8.291387984003E-09  6.516633091083E-09  5.108222943596E-09  3.993504685245E-09
  3.113603996609E-09  2.420705412918E-09  1.877004626202E-09  1.451353240599E-09
  1.119055351711E-09  8.603729300732E-10  6.595754734557E-10  5.041624592908E-10
  3.842290552414E-10  2.919502348613E-10  2.211624567092E-10  1.670254852909E-10
  1.257498379526E-10  9.437780218752E-11  7.060804381460E-11  5.265557214135E-11
  3.914029099146E-11  2.899858594156E-11  2.141341450474E-11  1.575920877737E-11
  1.155859641540E-11  8.448519122549E-12  6.153798164103E-12  4.466580875947E-12
  3.230415258672E-12  2.327953835215E-12  1.671493377460E-12  1.195722575481E-12
  8.521825062666E-13  6.050509110314E-13  4.279458295437E-13  3.015112079488E-13
  2.116000978646E-13  1.479127853698E-13  1.029799000276E-13  7.140609944624E-14
  4.930979357553E-14  3.390976355921E-14  2.322140275734E-14  1.583442855605E-14
  1.075089116813E-14  7.267620860475E-15  4.891286609191E-15  3.277283849312E-15
  2.185958270481E-15  1.451386304317E-15  9.592100323914E-16  6.309716493843E-16
  4.130922354223E-16  2.691538419850E-16  1.745201244597E-16  1.126047041089E-16
  7.229496398433E-17  4.618214949331E-17  2.935138532232E-17  1.855858627773E-17
  1.167336706936E-17  7.303905989729E-18  4.545634097773E-18  2.813754445551E-18
  1.732216422612E-18  1.060507692006E-18  6.456428394665E-19  3.908485286680E-19
  2.352516501993E-19  1.407780674729E-19  8.375006405990E-20  4.952819017170E-20
  2.911426870850E-20  1.701037921743E-20  9.877452433388E-21  5.699889923979E-21
  3.268479524049E-21  1.862301668338E-21  0.000000000000E+00  0.000000000000E+00
  0.000000000000E+00  0.000000000000E+00  0.000000000000E+00  0.000000000000E+00
  0.000000000000E+00  0.000000000000E+00  0.000000000000E+00  0.000000000000E+00
  0.000000000000E+00  0.000000000000E+00  0.000000000000E+00  0.000000000000E+00
  0.000000000000E+00  0.000000000000E+00  0.000000000000E+00  0.000000000000E+00
  0.000000000000E+00
</data>
</radfunc>
</valence-charge>
<pseudocore-charge matching-radius="0.579533066253"
 number-of-continuous-derivatives="4">
<annotation model-charge-form="Teter function with specified parameters" />
<radfunc>
<data npts="290">
  1.977378414253E+02  1.977082446163E+02  1.976197839902E+02  1.974722485920E+02
  1.972558724126E+02  1.969799724409E+02  1.966286465915E+02  1.962267677933E+02
  1.957754330049E+02  1.952498201300E+02  1.946582868690E+02  1.940164392461E+02
  1.932422702560E+02  1.924355301682E+02  1.916314528663E+02  1.907075417447E+02
  1.896466286578E+02  1.886439561509E+02  1.875201999165E+02  1.862615821600E+02
  1.848529837638E+02  1.836070606216E+02  1.822454653010E+02  1.807584535823E+02
  1.791356688788E+02  1.773661499163E+02  1.754383513616E+02  1.738813760855E+02
  1.722232903407E+02  1.704586702619E+02  1.685819773674E+02  1.665875871404E+02
  1.644698238551E+02  1.622230024143E+02  1.598414779980E+02  1.573197043516E+02
  1.546523015470E+02  1.518341340395E+02  1.498692094708E+02  1.478338151451E+02
  1.457267311989E+02  1.435468537244E+02  1.412932116383E+02  1.389649846835E+02
  1.365615225568E+02  1.340823651399E+02  1.315272637928E+02  1.288962036487E+02
  1.261894268254E+02  1.234074564398E+02  1.205511212836E+02  1.176215809835E+02
  1.146203514293E+02  1.115493302165E+02  1.084108218009E+02  1.052075620173E+02
  1.019427415630E+02  9.862002799387E+01  9.524358572651E+01  9.181809348472E+01
  8.834875857590E+01  8.484132733038E+01  8.130209099066E+01  7.773788629724E+01
  7.415608998756E+01  7.056460640619E+01  6.697184742299E+01  6.517775029918E+01
  6.338670387353E+01  6.159988814228E+01  5.981850777780E+01  5.804379039716E+01
  5.627698466290E+01  5.451935821299E+01  5.277219541738E+01  5.103679495967E+01
  4.931446724285E+01  4.760653161946E+01  4.591431344719E+01  4.423914097234E+01
  4.258234204463E+01  4.094524066823E+01  3.932915339518E+01  3.773538556902E+01
  3.616522742793E+01  3.461995007822E+01  3.310080135087E+01  3.160900155552E+01
  3.014573914810E+01  2.871216633020E+01  2.730939459998E+01  2.593849027652E+01
  2.460047002119E+01  2.329629638145E+01  2.202687338433E+01  2.079304220829E+01
  1.959557696412E+01  1.843518061637E+01  1.731248107865E+01  1.622802751665E+01
  1.518228689387E+01  1.417564079540E+01  1.320838256537E+01  1.228071479357E+01
  1.139274718612E+01  1.054449485440E+01  9.735877054814E+00  8.966716410438E+00
  8.236738643072E+00  7.545572841548E+00  6.892752288798E+00  6.277715866298E+00
  5.699810050175E+00  5.158291508338E+00  4.652330302614E+00  4.181013694018E+00
  3.743350542985E+00  3.338276289714E+00  2.964658492844E+00  2.621302897403E+00
  2.306959995675E+00  2.020332037198E+00  1.760080436785E+00  1.524833522360E+00
  1.313194557576E+00  1.123749967897E+00  9.550776931451E-01  8.057555845836E-01
  6.743697606889E-01  5.595228328333E-01  4.598419104720E-01  3.739862951122E-01
  3.006547735069E-01  2.385924232355E-01  1.865968481797E-01  1.435237674058E-01
  1.082918886190E-01  7.988700663203E-02  5.736527808859E-02  3.985563588371E-02
  2.656132014615E-02  1.676051706591E-02  9.806111995579E-03  5.124578812741E-03
  2.214043151221E-03  6.415724116622E-04  3.976004240388E-05  1.026850275947E-04
  5.813394185864E-04  1.278626701412E-03  2.044041442967E-03  2.768145683843E-03
  3.376959691898E-03  3.826383780970E-03  4.096763848869E-03  4.187706116232E-03
  4.113236383305E-03  3.897386211009E-03  3.570273137796E-03  3.164724836345E-03
  2.713478564713E-03  2.246968026898E-03  1.791690538074E-03  1.369128930318E-03
  9.951856732303E-04  6.800719198234E-04  4.285822458651E-04  2.406772427851E-04
  1.122912177279E-04  3.628124298466E-05  3.436680573711E-06  3.474881080427E-06
  2.595861020070E-05  6.108329322032E-05  1.002966259747E-04  1.367285976292E-04
  1.654255523759E-04  1.833966202000E-04  1.894937628138E-04  1.841570223683E-04
  1.690637224647E-04  1.467239812320E-04  1.200648512201E-04  9.204188111259E-05
  6.531035675715E-05  4.197962522526E-05  2.346362571032E-05  1.043004790752E-05
  2.840436846646E-06  6.501222157604E-08  1.049749185620E-06  4.509903794133E-06
  9.123877016375E-06  1.370397638202E-05  1.732580604507E-05  1.940496689247E-05
  1.971755468133E-05  1.836859718112E-05  1.571910282414E-05  1.228700167231E-05
  8.639417184447E-06  5.293235464774E-06  2.638034598829E-06  8.906472988885E-07
  8.477249045428E-08  0.000000000000E+00  0.000000000000E+00  0.000000000000E+00
  0.000000000000E+00  0.000000000000E+00  0.000000000000E+00  0.000000000000E+00
  0.000000000000E+00  0.000000000000E+00  0.000000000000E+00  0.000000000000E+00
  0.000000000000E+00  0.000000000000E+00  0.000000000000E+00  0.000000000000E+00
  0.000000000000E+00  0.000000000000E+00  0.000000000000E+00  0.000000000000E+00
  0.000000000000E+00  0.000000000000E+00  0.000000000000E+00  0.000000000000E+00
  0.000000000000E+00  0.000000000000E+00  0.000000000000E+00  0.000000000000E+00
  0.000000000000E+00  0.000000000000E+00  0.000000000000E+00  0.000000000000E+00
  0.000000000000E+00  0.000000000000E+00  0.000000000000E+00  0.000000000000E+00
  0.000000000000E+00  0.000000000000E+00  0.000000000000E+00  0.000000000000E+00
  0.000000000000E+00  0.000000000000E+00  0.000000000000E+00  0.000000000000E+00
  0.000000000000E+00  0.000000000000E+00  0.000000000000E+00  0.000000000000E+00
  0.000000000000E+00  0.000000000000E+00  0.000000000000E+00  0.000000000000E+00
  0.000000000000E+00  0.000000000000E+00  0.000000000000E+00  0.000000000000E+00
  0.000000000000E+00  0.000000000000E+00  0.000000000000E+00  0.000000000000E+00
  0.000000000000E+00  0.000000000000E+00  0.000000000000E+00  0.000000000000E+00
  0.000000000000E+00  0.000000000000E+00  0.000000000000E+00  0.000000000000E+00
  0.000000000000E+00  0.000000000000E+00  0.000000000000E+00  0.000000000000E+00
  0.000000000000E+00  0.000000000000E+00  0.000000000000E+00  0.000000000000E+00
  0.000000000000E+00  0.000000000000E+00  0.000000000000E+00  0.000000000000E+00
  0.000000000000E+00  0.000000000000E+00  0.000000000000E+00  0.000000000000E+00
  0.000000000000E+00  0.000000000000E+00
</data>
</radfunc>
</pseudocore-charge>
<semilocal-potentials set="scalar_relativistic">
<slps n="4" l="s" rc="1.21414343426" eref="-3.88839294470">
<radfunc>
<data npts="290">
  8.763877101902E+01  8.751669728333E+01  8.715314521988E+01  8.655115736440E+01
  8.567797642564E+01  8.458099513906E+01  8.321007314068E+01  8.167646281574E+01
  7.999657917777E+01  7.809462064979E+01  7.602104816696E+01  7.384739404716E+01
  7.132555939362E+01  6.880707797901E+01  6.640122182627E+01  6.375717535418E+01
  6.086893734330E+01  5.827415968891E+01  5.551024808657E+01  5.258171724382E+01
  4.949612375199E+01  4.692168161178E+01  4.426054239021E+01  4.152101655664E+01
  3.871266190335E+01  3.584618510742E+01  3.293330615776E+01  3.072572699590E+01
  2.850464836184E+01  2.627577039427E+01  2.404489002135E+01  2.181784384801E+01
  1.960045047784E+01  1.739845355325E+01  1.521746677792E+01  1.306292212006E+01
  1.094002228779E+01  8.853698425570E+00  7.485432545926E+00  6.136771928336E+00
  4.808934130141E+00  3.503064217609E+00  2.220232873406E+00  9.614351352374E-01
 -2.724102431957E-01 -1.480460824169E+00 -2.661949931738E+00 -3.816185537318E+00
 -4.942548615278E+00 -6.040491002370E+00 -7.109532797680E+00 -8.149259341972E+00
 -9.159317816833E+00 -1.013941350505E+01 -1.108930575415E+01 -1.200880368521E+01
 -1.289776168889E+01 -1.375607475053E+01 -1.458367364571E+01 -1.538052004795E+01
 -1.614660159006E+01 -1.688192692185E+01 -1.758652080784E+01 -1.826041931119E+01
 -1.890366511279E+01 -1.951630301896E+01 -2.009837571588E+01 -2.037796189486E+01
 -2.064991983525E+01 -2.091425258695E+01 -2.117096240186E+01 -2.142005064924E+01
 -2.166151774017E+01 -2.189536306178E+01 -2.212158492198E+01 -2.234018050516E+01
 -2.255114583972E+01 -2.275447577771E+01 -2.295016398725E+01 -2.313820295807E+01
 -2.331858402036E+01 -2.349129737715E+01 -2.365633215012E+01 -2.381367643863E+01
 -2.396331739158E+01 -2.410524129136E+01 -2.423943364915E+01 -2.436587931057E+01
 -2.448456257028E+01 -2.459546729447E+01 -2.469857704961E+01 -2.479387523620E+01
 -2.488134522622E+01 -2.496097050306E+01 -2.503273480321E+01 -2.509662225912E+01
 -2.515261754331E+01 -2.520070601414E+01 -2.524087386428E+01 -2.527310827348E+01
 -2.529739756761E+01 -2.531373138649E+01 -2.532210086329E+01 -2.532249881838E+01
 -2.531491997059E+01 -2.529936116865E+01 -2.527582164537E+01 -2.524430329655E+01
 -2.520481098617E+01 -2.515735287887E+01 -2.510194080010E+01 -2.503859062367E+01
 -2.496732268606E+01 -2.488816222639E+01 -2.480113985045E+01 -2.470629201748E+01
 -2.460366154779E+01 -2.449329815004E+01 -2.437525896690E+01 -2.424960913862E+01
 -2.411642238470E+01 -2.397578160465E+01 -2.382777950022E+01 -2.367251922264E+01
 -2.351011504998E+01 -2.334069310137E+01 -2.316439209677E+01 -2.298136417260E+01
 -2.279177576569E+01 -2.259580857950E+01 -2.239366064879E+01 -2.218554751988E+01
 -2.197170356542E+01 -2.175238345328E+01 -2.152786378975E+01 -2.129844495731E+01
 -2.106445316631E+01 -2.082624273858E+01 -2.058419863806E+01 -2.033873925993E+01
 -2.009031948368E+01 -1.983943398819E+01 -1.958662081670E+01 -1.933246516656E+01
 -1.907760336211E+01 -1.882272694907E+01 -1.856858682385E+01 -1.831599728219E+01
 -1.806583983748E+01 -1.781906662019E+01 -1.757670312677E+01 -1.733985004034E+01