<?xml version="1.0" encoding="UTF-8" ?>
<psml version="1.1" energy_unit="hartree" length_unit="bohr"
 uuid="d56b6340-1d64-11e8-7e60-6074f5df2bed"
 xmlns="http://esl.cecam.org/PSML/ns/1.1">
<provenance creator="ONCVPSP-3.3.0+psml-3.3.0-73 (scalar-relativistic)"
 date="2018-03-01">
<annotation action="semilocal-pseudopotential-generation"
 action-cont="projectors-generation" />
<input-file name="oncvpsp-input">
<![CDATA[# atsym z nc nv iexc psfile
H 1 0 1 -116133 upf
# n l f
1 0 1.0
# lmax
1
# l rc ep ncon nbas qcut
0 1.0 0.0 4 7 8.5
1 0.7 0.08 4 7 11.0
# lloc lpopt rc5 dvloc0
4 5 0.7 0.0
# l nproj debl
0 2 1.0
1 1 1.0
# icmod fcfact rcfact
0 0.25 0.0
# epsh1 epsh2 depsh
-12.0 12.0 0.02
# rlmax drl
3.0 0.01
 0
]]>
</input-file>
</provenance>
<pseudo-atom-spec atomic-label="H" atomic-number="1" z-pseudo="1"
 flavor="Hamann&apos;s oncvpsp" relativity="scalar" spin-dft="no"
 core-corrections="no">
<annotation pseudo-energy="-0.449757099151" />
<exchange-correlation>
<annotation oncvpsp-xc-code="-116133" oncvpsp-xc-type="libxc-interface" />
<libxc-info number-of-functionals="2">
<functional name="Perdew, Burke &amp; Ernzerhof SOL (GGA)" type="exchange"
 id="116" />
<functional name="Perdew, Burke &amp; Ernzerhof SOL (GGA)" type="correlation"
 id="133" />
</libxc-info>
</exchange-correlation>
<valence-configuration total-valence-charge="1">
<shell n="1" l="s" occupation="1" />
</valence-configuration>
</pseudo-atom-spec>
<grid npts="457">
<annotation type="sampled from oncvpsp log grid"
 recipe="r(i:1..N) = r1*exp(a*(i-1)) + r=0; resampled"
 recipe-cont="r1: scale; a: step" scale="0.500000000000E-03"
 step="0.119285708653E-01" delta="0.500000000000E-02" rmax="44.2954833909" />
<grid-data>
  0.000000000000E+00  5.058123513090E-03  1.010320477012E-02  1.515641821668E-02
  2.018035865727E-02  2.531387423390E-02  3.063704102628E-02  3.577613994437E-02
  4.079238691286E-02  4.596044693552E-02  5.116922694735E-02  5.629281359158E-02
  6.192942616304E-02  6.732256330795E-02  7.318536293912E-02  7.861534161388E-02
  8.444819686430E-02  8.963816212109E-02  9.514708906524E-02  1.009945802476E-01
  1.072014429406E-01  1.124404774478E-01  1.179355484579E-01  1.236991687138E-01
  1.297444624675E-01  1.360851953657E-01  1.427358057947E-01  1.479362033189E-01
  1.533260707120E-01  1.589123110676E-01  1.647020789849E-01  1.707027897317E-01
  1.769221287416E-01  1.833680614574E-01  1.900488435324E-01  1.969730314044E-01
  2.041494932539E-01  2.115874203624E-01  2.166959870397E-01  2.219278949507E-01
  2.272861220464E-01  2.327737181771E-01  2.383938068288E-01  2.441495869009E-01
  2.500443345270E-01  2.560814049398E-01  2.622642343807E-01  2.685963420556E-01
  2.750813321382E-01  2.817228958213E-01  2.885248134180E-01  2.954909565132E-01
  3.026252901672E-01  3.099318751730E-01  3.174148703672E-01  3.250785349974E-01
  3.329272311463E-01  3.409654262151E-01  3.491976954657E-01  3.576287246250E-01
  3.662633125523E-01  3.751063739706E-01  3.841629422638E-01  3.934381723418E-01
  4.029373435748E-01  4.126658627981E-01  4.226292673895E-01  4.277008185981E-01
  4.328332284213E-01  4.380272271624E-01  4.432835538883E-01  4.486029565350E-01
  4.539861920134E-01  4.594340263175E-01  4.649472346334E-01  4.705266014490E-01
  4.761729206663E-01  4.818869957143E-01  4.876696396629E-01  4.935216753389E-01
  4.994439354429E-01  5.054372626683E-01  5.115025098203E-01  5.176405399381E-01
  5.238522264174E-01  5.301384531344E-01  5.365001145720E-01  5.429381159469E-01
  5.494533733382E-01  5.560468138183E-01  5.627193755841E-01  5.694720080911E-01
  5.763056721882E-01  5.832213402545E-01  5.902199963375E-01  5.973026362936E-01
  6.044702679291E-01  6.117239111442E-01  6.190645980780E-01  6.264933732549E-01
  6.340112937340E-01  6.416194292588E-01  6.493188624099E-01  6.571106887588E-01
  6.649960170239E-01  6.729759692282E-01  6.810516808589E-01  6.892243010292E-01
  6.974949926416E-01  7.058649325533E-01  7.143353117439E-01  7.229073354848E-01
  7.315822235107E-01  7.403612101928E-01  7.492455447151E-01  7.582364912517E-01
  7.673353291467E-01  7.765433530965E-01  7.858618733336E-01  7.952922158136E-01
  8.048357224034E-01  8.144937510722E-01  8.242676760851E-01  8.341588881981E-01
  8.441687948565E-01  8.542988203948E-01  8.645504062395E-01  8.749250111144E-01
  8.854241112478E-01  8.960492005827E-01  9.068017909897E-01  9.176834124816E-01
  9.286956134314E-01  9.398399607926E-01  9.511180403221E-01  9.625314568059E-01
  9.740818342876E-01  9.857708162991E-01  9.976000660946E-01  1.009571266888E+00
  1.021686122090E+00  1.033946355556E+00  1.046353711822E+00  1.058909956364E+00
  1.071616875840E+00  1.084476278350E+00  1.097489993691E+00  1.110659873615E+00
  1.123987792098E+00  1.137475645604E+00  1.151125353351E+00  1.164938857591E+00
  1.178918123882E+00  1.193065141369E+00  1.207381923065E+00  1.221870506142E+00
  1.236532952216E+00  1.251371347642E+00  1.266387803814E+00  1.281584457460E+00
  1.296963470949E+00  1.312527032601E+00  1.328277356992E+00  1.344216685276E+00
  1.360347285499E+00  1.376671452925E+00  1.393191510360E+00  1.409909808484E+00
  1.426828726186E+00  1.443950670900E+00  1.461278078951E+00  1.478813415899E+00
  1.496559176889E+00  1.514517887012E+00  1.532692101656E+00  1.551084406876E+00
  1.569697419759E+00  1.588533788796E+00  1.607596194261E+00  1.626887348592E+00
  1.646409996776E+00  1.666166916737E+00  1.686160919738E+00  1.706394850775E+00
  1.726871588984E+00  1.747594048052E+00  1.768565176628E+00  1.789787958748E+00
  1.811265414253E+00  1.833000599224E+00  1.854996606414E+00  1.877256565691E+00
  1.899783644480E+00  1.922581048214E+00  1.945652020792E+00  1.968999845042E+00
  1.992627843182E+00  2.016539377300E+00  2.040737849828E+00  2.065226704026E+00
  2.090009424474E+00  2.115089537568E+00  2.140470612019E+00  2.166156259363E+00
  2.192150134475E+00  2.218455936089E+00  2.245077407322E+00  2.272018336210E+00
  2.299282556244E+00  2.326873946919E+00  2.354796434282E+00  2.383053991494E+00
  2.411650639392E+00  2.440590447064E+00  2.469877532429E+00  2.499516062818E+00
  2.529510255572E+00  2.559864378639E+00  2.590582751183E+00  2.621669744197E+00
  2.653129781127E+00  2.684967338501E+00  2.717186946563E+00  2.749793189921E+00
  2.782790708200E+00  2.816184196699E+00  2.849978407059E+00  2.884178147944E+00
  2.918788285719E+00  2.953813745148E+00  2.989259510090E+00  3.025130624211E+00
  3.061432191701E+00  3.098169378002E+00  3.135347410538E+00  3.172971579464E+00
  3.211047238418E+00  3.249579805279E+00  3.288574762942E+00  3.328037660097E+00
  3.367974112019E+00  3.408389801363E+00  3.449290478979E+00  3.490681964727E+00
  3.532570148304E+00  3.574960990083E+00  3.617860521964E+00  3.661274848228E+00
  3.705210146407E+00  3.749672668164E+00  3.794668740181E+00  3.840204765064E+00
  3.886287222244E+00  3.932922668911E+00  3.980117740938E+00  4.027879153830E+00
  4.076213703676E+00  4.125128268120E+00  4.174629807337E+00  4.224725365025E+00
  4.275422069405E+00  4.326727134238E+00  4.378647859849E+00  4.431191634167E+00
  4.484365933777E+00  4.538178324983E+00  4.592636464882E+00  4.647748102461E+00
  4.703521079691E+00  4.759963332647E+00  4.817082892639E+00  4.874887887350E+00
  4.933386541998E+00  4.992587180502E+00  5.052498226668E+00  5.113128205389E+00
  5.174485743853E+00  5.236579572779E+00  5.299418527653E+00  5.363011549985E+00
  5.427367688584E+00  5.492496100847E+00  5.558406054058E+00  5.625106926706E+00
  5.692608209827E+00  5.760919508345E+00  5.830050542445E+00  5.900011148954E+00
  5.970811282742E+00  6.042461018134E+00  6.114970550352E+00  6.188350196956E+00
  6.262610399320E+00  6.337761724112E+00  6.413814864801E+00  6.490780643179E+00
  6.568670010897E+00  6.647494051028E+00  6.727263979640E+00  6.807991147396E+00
  6.889687041164E+00  6.972363285658E+00  7.056031645086E+00  7.140704024827E+00
  7.226392473125E+00  7.313109182803E+00  7.400866492996E+00  7.489676890912E+00
  7.579553013603E+00  7.670507649766E+00  7.762553741564E+00  7.855704386462E+00
  7.949972839100E+00  8.045372513169E+00  8.141916983327E+00  8.239619987127E+00
  8.338495426973E+00  8.438557372096E+00  8.539820060561E+00  8.642297901288E+00
  8.746005476104E+00  8.850957541817E+00  8.957169032319E+00  9.064655060706E+00
  9.173430921435E+00  9.283512092492E+00  9.394914237602E+00  9.507653208453E+00
  9.621745046955E+00  9.737205987518E+00  9.854052459368E+00  9.972301088881E+00
  1.009196870195E+01  1.021307232637E+01  1.033562919429E+01  1.045965674462E+01
  1.058517262555E+01  1.071219469706E+01  1.084074103343E+01  1.097082992583E+01
  1.110247988494E+01  1.123570964356E+01  1.137053815928E+01  1.150698461719E+01
  1.164506843260E+01  1.178480925379E+01  1.192622696483E+01  1.206934168841E+01
  1.221417378867E+01  1.236074387414E+01  1.250907280063E+01  1.265918167423E+01
  1.281109185432E+01  1.296482495658E+01  1.312040285605E+01  1.327784769033E+01
  1.343718186261E+01  1.359842804496E+01  1.376160918150E+01  1.392674849168E+01
  1.409386947358E+01  1.426299590726E+01  1.443415185815E+01  1.460736168045E+01
  1.478265002061E+01  1.496004182086E+01  1.513956232271E+01  1.532123707058E+01
  1.550509191543E+01  1.569115301842E+01  1.587944685464E+01  1.607000021689E+01
  1.626284021949E+01  1.645799430213E+01  1.665549023375E+01  1.685535611656E+01
  1.705762038996E+01  1.726231183464E+01  1.746945957665E+01  1.767909309157E+01
  1.789124220867E+01  1.810593711518E+01  1.832320836056E+01  1.854308686088E+01
  1.876560390322E+01  1.899079115005E+01  1.921868064385E+01  1.944930481158E+01
  1.968269646932E+01  1.991888882695E+01  2.015791549288E+01  2.039981047879E+01
  2.064460820454E+01  2.089234350299E+01  2.114305162503E+01  2.139676824453E+01
  2.165352946346E+01  2.191337181702E+01  2.217633227883E+01  2.244244826617E+01
  2.271175764537E+01  2.298429873711E+01  2.326011032196E+01  2.353923164582E+01
  2.382170242557E+01  2.410756285468E+01  2.439685360893E+01  2.468961585224E+01
  2.498589124247E+01  2.528572193738E+01  2.558915060062E+01  2.589622040783E+01
  2.620697505273E+01  2.652145875336E+01  2.683971625840E+01  2.716179285350E+01
  2.748773436774E+01  2.781758718015E+01  2.815139822632E+01  2.848921500503E+01
  2.883108558509E+01  2.917705861211E+01  2.952718331546E+01  2.988150951524E+01
  3.024008762943E+01  3.060296868098E+01  3.097020430515E+01  3.134184675681E+01
  3.171794891790E+01  3.209856430491E+01  3.248374707657E+01  3.287355204149E+01
  3.326803466599E+01  3.366725108198E+01  3.407125809496E+01  3.448011319210E+01
  3.489387455041E+01  3.531260104501E+01  3.573635225755E+01  3.616518848464E+01
  3.659917074646E+01  3.703836079541E+01  3.748282112496E+01  3.793261497846E+01
  3.838780635820E+01  3.884846003450E+01  3.931464155491E+01  3.978641725357E+01
  4.026385426062E+01  4.074702051174E+01  4.123598475788E+01  4.173081657498E+01
  4.223158637388E+01  4.273836541036E+01  4.325122579529E+01  4.377024050483E+01
  4.429548339089E+01
</grid-data>
</grid>
<valence-charge total-charge="1" is-unscreening-charge="yes"
 rescaled-to-z-pseudo="no">
<radfunc>
<data npts="457">
  2.325542973083E+00  2.325384461035E+00  2.324909641781E+00  2.324117514005E+00
  2.323016529712E+00  2.321569507097E+00  2.319726385900E+00  2.317617355579E+00
  2.315247890681E+00  2.312487273072E+00  2.309378871062E+00  2.306004189751E+00
  2.301931150474E+00  2.297683631422E+00  2.292681374517E+00  2.287694665489E+00
  2.281963516428E+00  2.276541991450E+00  2.270459866300E+00  2.263640272098E+00
  2.255998335326E+00  2.249230192420E+00  2.241824054905E+00  2.233723943986E+00
  2.224869798355E+00  2.215197342975E+00  2.204637990496E+00  2.196092726914E+00
  2.186975241166E+00  2.177251765810E+00  2.166887185829E+00  2.155845079175E+00
  2.144087774491E+00  2.131576428152E+00  2.118271122827E+00  2.104130989844E+00
  2.089114357703E+00  2.073178929068E+00  2.062023783639E+00  2.050428592264E+00
  2.038380643799E+00  2.025867265825E+00  2.012875866793E+00  1.999393981658E+00
  1.985409321109E+00  1.970909824505E+00  1.955883716659E+00  1.940319568556E+00
  1.924206362141E+00  1.907533559297E+00  1.890291175133E+00  1.872469855742E+00
  1.854060960553E+00  1.835056649463E+00  1.815449974916E+00  1.795234979134E+00
  1.774406796687E+00  1.752961762643E+00  1.730897526469E+00  1.708213171914E+00
  1.684909342989E+00  1.660988376141E+00  1.636454438586E+00  1.611313672608E+00
  1.585574345396E+00  1.559247003717E+00  1.532344632283E+00  1.518682574237E+00
  1.504882814219E+00  1.490947732434E+00  1.476879891390E+00  1.462682040677E+00
  1.448357121619E+00  1.433908271732E+00  1.419338828968E+00  1.404652335678E+00
  1.389852542255E+00  1.374943410391E+00  1.359929115891E+00  1.344814050971E+00
  1.329602825975E+00  1.314300270430E+00  1.298911433361E+00  1.283441582781E+00
  1.267896204275E+00  1.252280998574E+00  1.236601878049E+00  1.220864962010E+00
  1.205076570736E+00  1.189243218139E+00  1.173371602973E+00  1.157468598511E+00
  1.141541240612E+00  1.125596714106E+00  1.109642337454E+00  1.093685545624E+00
  1.077733871162E+00  1.061794923456E+00  1.045876366185E+00  1.029985893006E+00
  1.014131201527E+00  9.983199656551E-01  9.825598064432E-01  9.668582615862E-01
  9.512227537506E-01  9.356605579646E-01  9.201787683331E-01  9.047842643759E-01
  8.894836773336E-01  8.742833568196E-01  8.591893382376E-01  8.442073114162E-01
  8.293425909464E-01  8.146000887322E-01  7.999842892888E-01  7.854992283398E-01
  7.711484752702E-01  7.569351199898E-01  7.428617647477E-01  7.289305214111E-01
  7.151430146812E-01  7.015003916590E-01  6.880033381012E-01  6.746521016137E-01
  6.614465219132E-01  6.483860681620E-01  6.354698832227E-01  6.226968345135E-01
  6.100655709549E-01  5.975745852977E-01  5.852222809068E-01  5.730070418582E-01
  5.609273049839E-01  5.489816322878E-01  5.371687819559E-01  5.254877760117E-01
  5.139379625266E-01  5.025190702028E-01  4.912312531067E-01  4.800751233612E-01
  4.690517311749E-01  4.581623718454E-01  4.474083011199E-01  4.367906864947E-01
  4.263106545859E-01  4.159692676835E-01  4.057675264394E-01  3.957063686671E-01
  3.857866685504E-01  3.760092359202E-01  3.663748155884E-01  3.568840867434E-01
  3.475376624071E-01  3.383360889562E-01  3.292798457064E-01  3.203693445633E-01
  3.116049297396E-01  3.029868775387E-01  2.945153962076E-01  2.861906258569E-01
  2.780126384517E-01  2.699814378705E-01  2.620969600347E-01  2.543590731077E-01
  2.467675777646E-01  2.393222075310E-01  2.320226291923E-01  2.248684432714E-01
  2.178591845766E-01  2.109943228165E-01  2.042732632836E-01  1.976953476039E-01
  1.912598545527E-01  1.849660009353E-01  1.788129425306E-01  1.727997750976E-01
  1.669255354423E-01  1.611892025442E-01  1.555896987398E-01  1.501258909624E-01
  1.447965920362E-01  1.396005620213E-01  1.345365096104E-01  1.296030935716E-01
  1.247989242387E-01  1.201225650436E-01  1.155725340905E-01  1.111473057694E-01
  1.068453124053E-01  1.026649459421E-01  9.860455965783E-02  9.466246990935E-02
  9.083695790398E-02  8.712627149544E-02  8.352862700198E-02  8.004221104422E-02
  7.666518240057E-02  7.339567387785E-02  7.023179419495E-02  6.717162987755E-02
  6.421324716170E-02  6.135469390434E-02  5.859400149750E-02  5.592918679133E-02
  5.335825401009E-02  5.087919667333E-02  4.848999951376E-02  4.618864039121E-02
  4.397309220132E-02  4.184132477694E-02  3.979130678070E-02  3.782100758683E-02
  3.592839915035E-02  3.411145786167E-02  3.236816638438E-02  3.069651547402E-02
  2.909450577534E-02  2.756014959547E-02  2.609147265012E-02  2.468651577994E-02
  2.334333663376E-02  2.206001131539E-02  2.083463599056E-02  1.966532845030E-02
  1.855022962695E-02  1.748750505919E-02  1.647534630206E-02  1.551197227826E-02
  1.459563056684E-02  1.372459862576E-02  1.289718494464E-02  1.211173012456E-02
  1.136660788163E-02  1.066022597178E-02  9.991027034175E-03  9.357489351288E-03
  8.758127523885E-03  8.191493059773E-03  7.656174875480E-03  7.150799710569E-03
  6.674032454716E-03  6.224576388189E-03  5.801173336779E-03  5.402603742733E-03
  5.027686653625E-03  4.675279631517E-03  4.344278585173E-03  4.033617528371E-03
  3.742268267736E-03  3.469240023737E-03  3.213578988745E-03  2.974367826250E-03
  2.750725115467E-03  2.541804745674E-03  2.346795264713E-03  2.164919186074E-03
  1.995432259024E-03  1.837622706154E-03  1.690810432652E-03  1.554346211529E-03
  1.427610848836E-03  1.310014332792E-03  1.200994970545E-03  1.100018516083E-03
  1.006577292608E-03  9.201893124611E-04  8.403973974483E-04  7.667683021989E-04
  6.988918429388E-04  6.363800338450E-04  5.788662329170E-04  5.260042990886E-04
  4.774677621007E-04  4.329490064601E-04  3.921584706358E-04  3.548238624767E-04
  3.206893916882E-04  2.895150200681E-04  2.610757300853E-04  2.351608122769E-04
  2.115731718460E-04  1.901286547640E-04  1.706553936073E-04  1.529931732987E-04
  1.369928168721E-04  1.225155913297E-04  1.094326336212E-04  9.762439673798E-05
  8.698011588054E-05  7.739729462541E-05  6.878121098851E-05  6.104444325158E-05
  5.410641538966E-05  4.789296190827E-05  4.233591186989E-05  3.737269186009E-05
  3.294594761418E-05  2.900318399603E-05  2.549642299157E-05  2.238187935125E-05
  1.961965348771E-05  1.717344120887E-05  1.501025984107E-05  1.310019027419E-05
  1.141613443874E-05  9.933587706250E-06  8.630425687498E-06  7.486704889052E-06
  6.484476677246E-06  5.607613990193E-06  4.841650232588E-06  4.173629785110E-06
  3.591969559954E-06  3.086331036406E-06  2.647502215296E-06  2.267288938430E-06
  1.938415028626E-06  1.654430717492E-06  1.409628841446E-06  1.198968301469E-06
  1.018004298448E-06  8.628248736100E-07  7.299933020819E-07  6.164959070059E-07
  5.196948815988E-07  4.372857268807E-07  3.672589333852E-07  3.078655557884E-07
  2.575863499316E-07  2.151041620174E-07  1.792792797079E-07  1.491274743467E-07
  1.238004824592E-07  1.025686929903E-07  8.480582434399E-08  6.997539214135E-08
  5.761878468202E-08  4.734477833739E-08  3.882033951542E-08  3.176257340121E-08
  2.593169239812E-08  2.112488907701E-08  1.717100950176E-08  1.392593305668E-08
  1.126857438093E-08  9.097431745587E-09  7.327614221810E-09  5.888287318520E-09
  4.720483451259E-09  3.775229676960E-09  3.011950630851E-09  2.397109568982E-09
  1.903054890763E-09  1.507043527170E-09  1.190416168007E-09  9.379025003753E-10
  7.370374736386E-10  5.776721253248E-10  4.515647276046E-10  3.520399733848E-10
  2.737056410852E-10  2.122176823673E-10  1.640859901918E-10  1.265142465452E-10
  9.726823919628E-11  7.456789244660E-11  5.699899395032E-11  4.344123270209E-11
  3.300970519576E-11  2.500750918205E-11  1.888743778720E-11  1.422112024149E-11
  1.067423729338E-11  7.986676775795E-12  5.956694093305E-12  4.428309168937E-12
  3.281310470831E-12  2.423352338209E-12  1.783727581540E-12  1.308476378093E-12
  9.565575116006E-13  6.968613132812E-13  5.058872092867E-13  3.659442277202E-13
  2.637615698426E-13  1.894195857502E-13  1.355302042625E-13  9.661087617684E-14
  6.860808631338E-14  4.853604171954E-14  3.420372041471E-14  2.400945003182E-14
  1.678690995841E-14  1.169010187531E-14  0.000000000000E+00  0.000000000000E+00
  0.000000000000E+00  0.000000000000E+00  0.000000000000E+00  0.000000000000E+00
  0.000000000000E+00  0.000000000000E+00  0.000000000000E+00  0.000000000000E+00
  0.000000000000E+00  0.000000000000E+00  0.000000000000E+00  0.000000000000E+00
  0.000000000000E+00  0.000000000000E+00  0.000000000000E+00  0.000000000000E+00
  0.000000000000E+00  0.000000000000E+00  0.000000000000E+00  0.000000000000E+00
  0.000000000000E+00  0.000000000000E+00  0.000000000000E+00  0.000000000000E+00
  0.000000000000E+00  0.000000000000E+00  0.000000000000E+00  0.000000000000E+00
  0.000000000000E+00  0.000000000000E+00  0.000000000000E+00  0.000000000000E+00
  0.000000000000E+00  0.000000000000E+00  0.000000000000E+00  0.000000000000E+00
  0.000000000000E+00  0.000000000000E+00  0.000000000000E+00  0.000000000000E+00
  0.000000000000E+00  0.000000000000E+00  0.000000000000E+00  0.000000000000E+00
  0.000000000000E+00  0.000000000000E+00  0.000000000000E+00  0.000000000000E+00
  0.000000000000E+00  0.000000000000E+00  0.000000000000E+00  0.000000000000E+00
  0.000000000000E+00  0.000000000000E+00  0.000000000000E+00  0.000000000000E+00
  0.000000000000E+00  0.000000000000E+00  0.000000000000E+00  0.000000000000E+00
  0.000000000000E+00
</data>
</radfunc>
</valence-charge>
<semilocal-potentials set="scalar_relativistic">
<slps n="1" l="s" rc="1.00957126689" eref="-0.232696009485">
<radfunc>
<data npts="232">
 -4.564517615262E+00 -4.564067925273E+00 -4.562723605534E+00 -4.560482506224E+00
 -4.557370235176E+00 -4.553284341436E+00 -4.548087451021E+00 -4.542151002755E+00
 -4.535494442483E+00 -4.527756250946E+00 -4.519065333707E+00 -4.509656372010E+00
 -4.498336859151E+00 -4.486574838894E+00 -4.472778073012E+00 -4.459083351055E+00
 -4.443416756505E+00 -4.428667537867E+00 -4.412202798760E+00 -4.393843660074E+00
 -4.373397820064E+00 -4.355401131442E+00 -4.335826874311E+00 -4.314559526197E+00
 -4.291479480439E+00 -4.266463788594E+00 -4.239387101340E+00 -4.217650911870E+00
 -4.194630769875E+00 -4.170273654257E+00 -4.144527364150E+00 -4.117340963858E+00
 -4.088665255709E+00 -4.058453271678E+00 -4.026660770965E+00 -3.993246726324E+00
 -3.958173776796E+00 -3.921408618542E+00 -3.895943914538E+00 -3.869706689463E+00
 -3.842690370539E+00 -3.814889260599E+00 -3.786298495809E+00 -3.756913976100E+00
 -3.726732264204E+00 -3.695750449016E+00 -3.663965968957E+00 -3.631376391017E+00
 -3.597979141396E+00 -3.563771183995E+00 -3.528748643746E+00 -3.492906372644E+00
 -3.456237457711E+00 -3.418732671920E+00 -3.380379871347E+00 -3.341163344770E+00
 -3.301063125481E+00 -3.260054279431E+00 -3.218106188983E+00 -3.175181857594E+00
 -3.131237267663E+00 -3.086220831639E+00 -3.040072985045E+00 -2.992725979424E+00
 -2.944103942844E+00 -2.894123285381E+00 -2.842693536229E+00 -2.816405421789E+00
 -2.789718707171E+00 -2.762620858008E+00 -2.735099283041E+00 -2.707141437869E+00
 -2.678734942470E+00 -2.649867713205E+00 -2.620528109948E+00 -2.590705098895E+00
 -2.560388431506E+00 -2.529568839890E+00 -2.498238248785E+00 -2.466390004092E+00
 -2.434019117693E+00 -2.401122528030E+00 -2.367699375592E+00 -2.333751292171E+00
 -2.299282702295E+00 -2.264301134883E+00 -2.228817542658E+00 -2.192846626344E+00
 -2.156407160143E+00 -2.119522314356E+00 -2.082219970421E+00 -2.044533022941E+00
 -2.006499662644E+00 -1.968163633495E+00 -1.929574456507E+00 -1.890787612147E+00
 -1.851864672596E+00 -1.812873374579E+00 -1.773887622980E+00 -1.734987415168E+00
 -1.696258675679E+00 -1.657792990949E+00 -1.619687233991E+00 -1.582043069356E+00
 -1.544966329536E+00 -1.508566255080E+00 -1.472954592181E+00 -1.438244543457E+00
 -1.404549569978E+00 -1.371982045472E+00 -1.340651766848E+00 -1.310664328973E+00
 -1.282119376034E+00 -1.255108746661E+00 -1.229714534859E+00 -1.206007094086E+00
 -1.184043017533E+00 -1.163863133396E+00 -1.145490559529E+00 -1.128928867332E+00
 -1.114160409764E+00 -1.101144872697E+00 -1.089818112403E+00 -1.080091344273E+00
 -1.071850748850E+00 -1.064957560530E+00 -1.059248701586E+00 -1.054538019311E+00
 -1.050618176780E+00 -1.047263237837E+00 -1.044231974322E+00 -1.041271908197E+00
 -1.038124083161E+00 -1.034528539561E+00 -1.030230443277E+00 -1.024986793830E+00
 -1.018573572200E+00 -1.010793678883E+00 -1.001485074573E+00 -9.905199399303E-01
 -9.787798341378E-01 -9.671774168357E-01 -9.557076110108E-01 -9.443745606678E-01
 -9.331766575152E-01 -9.221111806413E-01 -9.111769902695E-01 -9.003724477871E-01
 -8.896960238994E-01 -8.791461992002E-01 -8.687214724921E-01 -8.584203604025E-01
 -8.482413971457E-01 -8.381831343171E-01 -8.282441406867E-01 -8.184230019953E-01
 -8.087183207537E-01 -7.991287160438E-01 -7.896528233216E-01 -7.802892942237E-01
 -7.710367963748E-01 -7.618940131987E-01 -7.528596437307E-01 -7.439324024323E-01
 -7.351110190085E-01 -7.263942382270E-01 -7.177808197397E-01 -7.092695379059E-01
 -7.008591816178E-01 -6.925485541289E-01 -6.843364728826E-01 -6.762217693448E-01
 -6.682032888371E-01 -6.602798903725E-01 -6.524504464931E-01 -6.447138431098E-01
 -6.370689793431E-01 -6.295147673670E-01 -6.220501322538E-01 -6.146740118211E-01
 -6.073853564806E-01 -6.001831290885E-01 -5.930663047981E-01 -5.860338709135E-01
 -5.790848267455E-01 -5.722181834691E-01 -5.654329639826E-01 -5.587282027683E-01
 -5.521029457552E-01 -5.455562501827E-01 -5.390871844666E-01 -5.326948280663E-01
 -5.263782713534E-01 -5.201366154824E-01 -5.139689722625E-01 -5.078744640312E-01
 -5.018522235292E-01 -4.959013937769E-01 -4.900211279526E-01 -4.842105892684E-01
 -4.784689508744E-01 -4.727953956944E-01 -4.671891163174E-01 -4.616493149628E-01
 -4.561752032858E-01 -4.507660022599E-01 -4.454209421131E-01 -4.401392621952E-01
 -4.349202108739E-01 -4.297630454285E-01 -4.246670319447E-01 -4.196314452111E-01
 -4.146555686172E-01 -4.097386940518E-01 -4.048801218036E-01 -4.000791604627E-01
 -3.953351268229E-01 -3.906473457858E-01 -3.860151502653E-01 -3.814378810943E-01
 -3.769148869310E-01 -3.724455241675E-01 -3.680291568387E-01 -3.636651565323E-01
 -3.593529022998E-01 -3.550917805686E-01 -3.508811850544E-01 -3.467205166751E-01
 -3.426091834653E-01 -3.385466004912E-01 -3.345321897673E-01 -3.305653801730E-01
</data>
</radfunc>
</slps>
<slps n="2" l="p" rc="0.705864932553" eref="0.799999929634E-01">
<radfunc>
<data npts="232">
 -5.836019796258E+00 -5.833600643131E+00 -5.826378649723E+00 -5.814363933852E+00
 -5.797730056927E+00 -5.775982996004E+00 -5.748471046950E+00 -5.717247199694E+00
 -5.682493594006E+00 -5.642435393708E+00 -5.597884273399E+00 -5.550175866681E+00
 -5.493500987863E+00 -5.435444347315E+00 -5.368426437492E+00 -5.303058277331E+00
 -5.229685872491E+00 -5.161980552034E+00 -5.087967002658E+00 -5.007381330167E+00
 -4.920039892310E+00 -4.845248083820E+00 -4.766108177629E+00 -4.682716557727E+00
 -4.595252892872E+00 -4.503993280586E+00 -4.409323031487E+00 -4.336381707098E+00
 -4.262064934790E+00 -4.186676246562E+00 -4.110561991523E+00 -4.034110400770E+00
 -3.957749030552E+00 -3.881940217669E+00 -3.807174162437E+00 -3.733959254010E+00
 -3.662809278807E+00 -3.594227214808E+00 -3.550167664517E+00 -3.507588133251E+00
 -3.466602221920E+00 -3.427305704771E+00 -3.389772551687E+00 -3.354050776653E+00
 -3.320158191099E+00 -3.288078162470E+00 -3.257755501933E+00 -3.229092629966E+00
 -3.201946194127E+00 -3.176124338393E+00 -3.151384846880E+00 -3.127434404727E+00
 -3.103929233488E+00 -3.080477365009E+00 -3.056642813722E+00 -3.031951889348E+00
 -3.005901856937E+00 -2.977972095257E+00 -2.947637824700E+00 -2.914386368858E+00
 -2.877735777818E+00 -2.837255475067E+00 -2.792588394942E+00 -2.743473857732E+00
 -2.689770192407E+00 -2.631475874659E+00 -2.568747718028E+00 -2.535816716766E+00
 -2.501914461969E+00 -2.467110096182E+00 -2.431483972714E+00 -2.395127404625E+00
 -2.358142246254E+00 -2.320640296806E+00 -2.282742517475E+00 -2.244578056095E+00
 -2.206283076229E+00 -2.167999391093E+00 -2.129872906702E+00 -2.092051883052E+00
 -2.054685027102E+00 -2.017919436584E+00 -1.981898419312E+00 -1.946759218467E+00
 -1.912630680222E+00 -1.879630905914E+00 -1.847864936472E+00 -1.817422521929E+00
 -1.788376033191E+00 -1.760778576664E+00 -1.734662374554E+00 -1.710037474409E+00
 -1.686890850460E+00 -1.665185956385E+00 -1.644862783963E+00 -1.625838474544E+00
 -1.608008520299E+00 -1.591248579587E+00 -1.575416915757E+00 -1.560357451135E+00
 -1.545903408328E+00 -1.531881489402E+00 -1.518116520678E+00 -1.504436467215E+00
 -1.490677697472E+00 -1.476690355891E+00 -1.462343680340E+00 -1.447531083540E+00
 -1.432174804084E+00 -1.416229924567E+00 -1.400008426725E+00 -1.384013755335E+00
 -1.368176039808E+00 -1.352488436103E+00 -1.336944418104E+00 -1.321537858275E+00
 -1.306263111466E+00 -1.291115100566E+00 -1.276089402360E+00 -1.261182331741E+00
 -1.246391022174E+00 -1.231713500148E+00 -1.217148751160E+00 -1.202696774665E+00
 -1.188358625337E+00 -1.174136437926E+00 -1.160033432959E+00 -1.146053900499E+00
 -1.132203159198E+00 -1.118487487891E+00 -1.104914027105E+00 -1.091490648015E+00
 -1.078225786795E+00 -1.065128242869E+00 -1.052206940478E+00 -1.039470654190E+00
 -1.026927663069E+00 -1.014585818811E+00 -1.002452606780E+00 -9.905262149841E-01
 -9.787798341378E-01 -9.671774168357E-01 -9.557076110108E-01 -9.443745606678E-01
 -9.331766575152E-01 -9.221111806413E-01 -9.111769902695E-01 -9.003724477871E-01
 -8.896960238994E-01 -8.791461992002E-01 -8.687214724921E-01 -8.584203604025E-01
 -8.482413971457E-01 -8.381831343171E-01 -8.282441406867E-01 -8.184230019953E-01
 -8.087183207537E-01 -7.991287160438E-01 -7.896528233216E-01 -7.802892942237E-01
 -7.710367963748E-01 -7.618940131987E-01 -7.528596437307E-01 -7.439324024323E-01
 -7.351110190085E-01 -7.263942382270E-01 -7.177808197397E-01 -7.092695379059E-01
 -7.008591816178E-01 -6.925485541289E-01 -6.843364728826E-01 -6.762217693448E-01
 -6.682032888371E-01 -6.602798903725E-01 -6.524504464931E-01 -6.447138431098E-01
 -6.370689793431E-01 -6.295147673670E-01 -6.220501322538E-01 -6.146740118211E-01
 -6.073853564806E-01 -6.001831290885E-01 -5.930663047981E-01 -5.860338709135E-01
 -5.790848267455E-01 -5.722181834691E-01 -5.654329639826E-01 -5.587282027683E-01
 -5.521029457552E-01 -5.455562501827E-01 -5.390871844666E-01 -5.326948280663E-01
 -5.263782713534E-01 -5.201366154824E-01 -5.139689722625E-01 -5.078744640312E-01
 -5.018522235292E-01 -4.959013937769E-01 -4.900211279526E-01 -4.842105892684E-01
 -4.784689508744E-01 -4.727953956944E-01 -4.671891163174E-01 -4.616493149628E-01
 -4.561752032858E-01 -4.507660022599E-01 -4.454209421131E-01 -4.401392621952E-01
 -4.349202108739E-01 -4.297630454285E-01 -4.246670319447E-01 -4.196314452111E-01
 -4.146555686172E-01 -4.097386940518E-01 -4.048801218036E-01 -4.000791604627E-01
 -3.953351268229E-01 -3.906473457858E-01 -3.860151502653E-01 -3.814378810943E-01
 -3.769148869310E-01 -3.724455241675E-01 -3.680291568387E-01 -3.636651565323E-01
 -3.593529022998E-01 -3.550917805686E-01 -3.508811850544E-01 -3.467205166751E-01