<?xml version="1.0" encoding="UTF-8" ?>
<psml version="1.1" energy_unit="hartree" length_unit="bohr"
 uuid="ec99f9e0-1d60-11e8-5aa0-2cd5fffbf52f"
 xmlns="http://esl.cecam.org/PSML/ns/1.1">
<provenance creator="ONCVPSP-3.3.0+psml-3.3.0-73 (scalar-relativistic)"
 date="2018-03-01">
<annotation action="semilocal-pseudopotential-generation"
 action-cont="projectors-generation" />
<input-file name="oncvpsp-input">
<![CDATA[# atsym z nc nv iexc psfile
Tl 81 12 3 -116133 upf
# n l f
1 0 2.0
2 0 2.0
2 1 6.0
3 0 2.0
3 1 6.0
3 2 10.0
4 0 2.0
4 1 6.0
4 2 10.0
5 0 2.0
5 1 6.0
4 3 14.0
5 2 10.0
6 0 2.0
6 1 1.0
# lmax
2
# l rc ep ncon nbas qcut
0 2.1 0.0 4 7 2.9
1 2.6 0.0 4 7 2.6
2 2.0 0.0 4 8 7.4
# lloc lpopt rc5 dvloc0
4 5 2.0 0.0
# l nproj debl
0 2 2.6
1 2 3.1
2 2 1.0
# icmod fcfact
3 7.0 1.3
# epsh1 epsh2 depsh
-12.0 12.0 0.02
# rlmax drl
6.0 0.01
 0
]]>
</input-file>
</provenance>
<pseudo-atom-spec atomic-label="Tl" atomic-number="81" z-pseudo="13"
 flavor="Hamann&apos;s oncvpsp" relativity="scalar" spin-dft="no"
 core-corrections="yes">
<annotation pseudo-energy="-50.6605536423" />
<exchange-correlation>
<annotation oncvpsp-xc-code="-116133" oncvpsp-xc-type="libxc-interface" />
<libxc-info number-of-functionals="2">
<functional name="Perdew, Burke &amp; Ernzerhof SOL (GGA)" type="exchange"
 id="116" />
<functional name="Perdew, Burke &amp; Ernzerhof SOL (GGA)" type="correlation"
 id="133" />
</libxc-info>
</exchange-correlation>
<valence-configuration total-valence-charge="13">
<shell n="5" l="d" occupation="10" />
<shell n="6" l="s" occupation="2" />
<shell n="6" l="p" occupation="1" />
</valence-configuration>
</pseudo-atom-spec>
<grid npts="457">
<annotation type="sampled from oncvpsp log grid"
 recipe="r(i:1..N) = r1*exp(a*(i-1)) + r=0; resampled"
 recipe-cont="r1: scale; a: step" scale="0.617283950617E-05"
 step="0.119285708653E-01" delta="0.500000000000E-02" rmax="44.0862366899" />
<grid-data>
  0.000000000000E+00  5.034229527132E-03  1.005547840830E-02  1.508482106348E-02
  2.008502899497E-02  2.519429444232E-02  3.049231521517E-02  3.560713762894E-02
  4.108688469256E-02  4.629225516251E-02  5.153863959675E-02  5.669921561583E-02
  6.237652131689E-02  6.780859383762E-02  7.283964381425E-02  7.824397190261E-02
  8.404927342464E-02  8.921472189043E-02  9.469762530576E-02  1.005174936213E-01
  1.066950358184E-01  1.119093217371E-01  1.173784346723E-01  1.231148282578E-01
  1.291315647484E-01  1.354423447633E-01  1.420615384838E-01  1.472373699362E-01
  1.526017762239E-01  1.581616278312E-01  1.639240455596E-01  1.698964096482E-01
  1.760863692255E-01  1.825018521063E-01  1.891510749455E-01  1.960425537609E-01
  2.031851148411E-01  2.105879060489E-01  2.156723404525E-01  2.208795334404E-01
  2.262124488958E-01  2.316741222619E-01  2.372676622698E-01  2.429962527077E-01
  2.488631542330E-01  2.548717062288E-01  2.610253287040E-01  2.673275242402E-01
  2.737818799855E-01  2.803920696959E-01  2.871618558266E-01  2.940950916737E-01
  3.011957235671E-01  3.084677931169E-01  3.159154395139E-01  3.235429018855E-01
  3.313545217086E-01  3.393547452808E-01  3.475481262508E-01  3.559393282110E-01
  3.645331273513E-01  3.733344151781E-01  3.823482012982E-01  3.915796162703E-01
  4.010339145255E-01  4.107164773579E-01  4.206328159872E-01  4.256804097790E-01
  4.307885746964E-01  4.359580375927E-01  4.411895340438E-01  4.464838084524E-01
  4.518416141538E-01  4.572637135236E-01  4.627508780859E-01  4.683038886230E-01
  4.739235352864E-01  4.796106177099E-01  4.853659451224E-01  4.911903364639E-01
  4.970846205014E-01  5.030496359474E-01  5.090862315788E-01  5.151952663578E-01
  5.213776095540E-01  5.276341408687E-01  5.339657505591E-01  5.403733395658E-01
  5.468578196406E-01  5.534201134763E-01  5.600611548380E-01  5.667818886961E-01
  5.735832713604E-01  5.804662706168E-01  5.874318658642E-01  5.944810482545E-01
  6.016148208336E-01  6.088341986836E-01  6.161402090678E-01  6.235338915766E-01
  6.310162982755E-01  6.385884938548E-01  6.462515557811E-01  6.540065744505E-01
  6.618546533439E-01  6.697969091840E-01  6.778344720942E-01  6.859684857593E-01
  6.942001075884E-01  7.025305088795E-01  7.109608749861E-01  7.194924054859E-01
  7.281263143517E-01  7.368638301239E-01  7.457061960854E-01  7.546546704385E-01
  7.637105264837E-01  7.728750528015E-01  7.821495534351E-01  7.915353480764E-01
  8.010337722533E-01  8.106461775203E-01  8.203739316506E-01  8.302184188304E-01
  8.401810398563E-01  8.502632123346E-01  8.604663708826E-01  8.707919673332E-01
  8.812414709412E-01  8.918163685925E-01  9.025181650156E-01  9.133483829958E-01
  9.243085635918E-01  9.354002663549E-01  9.466250695511E-01  9.579845703857E-01
  9.694803852304E-01  9.811141498531E-01  9.928875196514E-01  1.004802169887E+00
  1.016859795926E+00  1.029062113477E+00  1.041410858839E+00  1.053907789145E+00
  1.066554682614E+00  1.079353338806E+00  1.092305578871E+00  1.105413245818E+00
  1.118678204768E+00  1.132102343225E+00  1.145687571344E+00  1.159435822200E+00
  1.173349052066E+00  1.187429240691E+00  1.201678391579E+00  1.216098532278E+00
  1.230691714666E+00  1.245460015242E+00  1.260405535424E+00  1.275530401850E+00
  1.290836766672E+00  1.306326807872E+00  1.322002729566E+00  1.337866762321E+00
  1.353921163469E+00  1.370168217431E+00  1.386610236040E+00  1.403249558872E+00
  1.420088553579E+00  1.437129616222E+00  1.454375171616E+00  1.471827673676E+00
  1.489489605760E+00  1.507363481029E+00  1.525451842801E+00  1.543757264915E+00
  1.562282352094E+00  1.581029740319E+00  1.600002097203E+00  1.619202122369E+00
  1.638632547838E+00  1.658296138412E+00  1.678195692073E+00  1.698334040378E+00
  1.718714048862E+00  1.739338617448E+00  1.760210680858E+00  1.781333209028E+00
  1.802709207536E+00  1.824341718027E+00  1.846233818643E+00  1.868388624467E+00
  1.890809287960E+00  1.913498999416E+00  1.936460987409E+00  1.959698519258E+00
  1.983214901489E+00  2.007013480307E+00  2.031097642071E+00  2.055470813775E+00
  2.080136463541E+00  2.105098101103E+00  2.130359278316E+00  2.155923589656E+00
  2.181794672732E+00  2.207976208805E+00  2.234471923311E+00  2.261285586390E+00
  2.288421013427E+00  2.315882065588E+00  2.343672650375E+00  2.371796722180E+00
  2.400258282846E+00  2.429061382240E+00  2.458210118827E+00  2.487708640253E+00
  2.517561143936E+00  2.547771877663E+00  2.578345140195E+00  2.609285281877E+00
  2.640596705260E+00  2.672283865723E+00  2.704351272112E+00  2.736803487377E+00
  2.769645129225E+00  2.802880870776E+00  2.836515441225E+00  2.870553626520E+00
  2.905000270038E+00  2.939860273279E+00  2.975138596558E+00  3.010840259717E+00
  3.046970342834E+00  3.083533986948E+00  3.120536394791E+00  3.157982831528E+00
  3.195878625507E+00  3.234229169013E+00  3.273039919041E+00  3.312316398069E+00
  3.352064194846E+00  3.392288965184E+00  3.432996432767E+00  3.474192389960E+00
  3.515882698639E+00  3.558073291023E+00  3.600770170515E+00  3.643979412562E+00
  3.687707165512E+00  3.731959651498E+00  3.776743167316E+00  3.822064085324E+00
  3.867928854348E+00  3.914344000600E+00  3.961316128607E+00  4.008851922151E+00
  4.056958145217E+00  4.105641642959E+00  4.154909342675E+00  4.204768254787E+00
  4.255225473844E+00  4.306288179530E+00  4.357963637685E+00  4.410259201337E+00
  4.463182311753E+00  4.516740499494E+00  4.570941385488E+00  4.625792682114E+00
  4.681302194299E+00  4.737477820631E+00  4.794327554478E+00  4.851859485132E+00
  4.910081798954E+00  4.969002780541E+00  5.028630813908E+00  5.088974383674E+00
  5.150042076279E+00  5.211842581194E+00  5.274384692168E+00  5.337677308474E+00
  5.401729436176E+00  5.466550189410E+00  5.532148791683E+00  5.598534577183E+00
  5.665716992109E+00  5.733705596015E+00  5.802510063167E+00  5.872140183925E+00
  5.942605866132E+00  6.013917136526E+00  6.086084142164E+00  6.159117151870E+00
  6.233026557692E+00  6.307822876385E+00  6.383516750901E+00  6.460118951912E+00
  6.537640379335E+00  6.616092063887E+00  6.695485168654E+00  6.775830990677E+00
  6.857140962566E+00  6.939426654116E+00  7.022699773966E+00  7.106972171253E+00
  7.192255837308E+00  7.278562907356E+00  7.365905662244E+00  7.454296530191E+00
  7.543748088554E+00  7.634273065616E+00  7.725884342404E+00  7.818594954512E+00
  7.912418093967E+00  8.007367111094E+00  8.103455516427E+00  8.200696982624E+00
  8.299105346416E+00  8.398694610573E+00  8.499478945900E+00  8.601472693251E+00
  8.704690365570E+00  8.809146649956E+00  8.914856409756E+00  9.021834686673E+00
  9.130096702913E+00  9.239657863348E+00  9.350533757708E+00  9.462740162801E+00
  9.576293044754E+00  9.691208561291E+00  9.807503064027E+00  9.925193100795E+00
  1.004429541800E+01  1.016482696302E+01  1.028680488658E+01  1.041024654522E+01
  1.053516950376E+01  1.066159153780E+01  1.078953063626E+01  1.091900500389E+01
  1.105003306394E+01  1.118263346071E+01  1.131682506223E+01  1.145262696298E+01
  1.159005848654E+01  1.172913918838E+01  1.186988885864E+01  1.201232752494E+01
  1.215647545524E+01  1.230235316070E+01  1.244998139863E+01  1.259938117541E+01
  1.275057374952E+01  1.290358063451E+01  1.305842360213E+01  1.321512468535E+01
  1.337370618158E+01  1.353419065576E+01  1.369660094363E+01  1.386096015495E+01
  1.402729167681E+01  1.419561917693E+01  1.436596660705E+01  1.453835820634E+01
  1.471281850481E+01  1.488937232687E+01  1.506804479479E+01  1.524886133233E+01
  1.543184766832E+01  1.561702984034E+01  1.580443419842E+01  1.599408740880E+01
  1.618601645771E+01  1.638024865520E+01  1.657681163907E+01  1.677573337873E+01
  1.697704217928E+01  1.718076668543E+01  1.738693588566E+01  1.759557911628E+01
  1.780672606568E+01  1.802040677847E+01  1.823665165981E+01  1.845549147973E+01
  1.867695737748E+01  1.890108086601E+01  1.912789383640E+01  1.935742856244E+01
  1.958971770519E+01  1.982479431765E+01  2.006269184946E+01  2.030344415166E+01
  2.054708548148E+01  2.079365050726E+01  2.104317431334E+01  2.129569240510E+01
  2.155124071396E+01  2.180985560253E+01  2.207157386976E+01  2.233643275620E+01
  2.260446994927E+01  2.287572358867E+01  2.315023227173E+01  2.342803505899E+01
  2.370917147970E+01  2.399368153745E+01  2.428160571590E+01  2.457298498449E+01
  2.486786080431E+01  2.516627513396E+01  2.546827043557E+01  2.577388968079E+01
  2.608317635696E+01  2.639617447325E+01  2.671292856693E+01  2.703348370973E+01
  2.735788551425E+01  2.768618014042E+01  2.801841430210E+01  2.835463527373E+01
  2.869489089701E+01  2.903922958778E+01  2.938770034283E+01  2.974035274694E+01
  3.009723697991E+01  3.045840382367E+01  3.082390466955E+01  3.119379152558E+01
  3.156811702389E+01  3.194693442818E+01  3.233029764132E+01  3.271826121301E+01
  3.311088034757E+01  3.350821091174E+01  3.391030944268E+01  3.431723315599E+01
  3.472903995386E+01  3.514578843331E+01  3.556753789451E+01  3.599434834924E+01
  3.642628052944E+01  3.686339589579E+01  3.730575664654E+01  3.775342572630E+01
  3.820646683501E+01  3.866494443703E+01  3.912892377028E+01  3.959847085552E+01
  4.007365250579E+01  4.055453633586E+01  4.104119077189E+01  4.153368506115E+01
  4.203208928188E+01  4.253647435326E+01  4.304691204550E+01  4.356347499005E+01
  4.408623668993E+01
</grid-data>
</grid>
<valence-charge total-charge="13" is-unscreening-charge="yes"
 rescaled-to-z-pseudo="no">
<radfunc>
<data npts="457">
  1.727664386464E-03  1.729426709700E-03  1.735483601780E-03  1.748219533798E-03
  1.771393284277E-03  1.811541281024E-03  1.878640813984E-03  1.977399185828E-03
  2.132631030924E-03  2.341057687303E-03  2.626534916040E-03  2.997558273411E-03
  3.530346155422E-03  4.185331660123E-03  4.940117377160E-03  5.933902013937E-03
  7.243132880887E-03  8.646950934877E-03  1.041416132603E-02  1.263891451428E-02
  1.543945847911E-02  1.819295845909E-02  2.150202762543E-02  2.547775119343E-02
  3.025290483893E-02  3.598600030172E-02  4.286602103889E-02  4.891251547311E-02
  5.584007257117E-02  6.377404363775E-02  7.285680925943E-02  8.324989554528E-02
  9.513630532113E-02  1.087230738980E-01  1.242440558371E-01  1.419629446102E-01
  1.621765208813E-01  1.852181169439E-01  2.023329990261E-01  2.209912799126E-01
  2.413235570095E-01  2.634701571626E-01  2.875816570620E-01  3.138193976140E-01
  3.423559849411E-01  3.733757693097E-01  4.070752917579E-01  4.436636864975E-01
  4.833630252901E-01  5.264085879381E-01  5.730490407905E-01  6.235465027441E-01
  6.781764756277E-01  7.372276131164E-01  8.010012994518E-01  8.698110062851E-01
  9.439813929601E-01  1.023847112581E+00  1.109751283346E+00  1.202043581980E+00
  1.301077913791E+00  1.407209612065E+00  1.520792118398E+00  1.642173095297E+00
  1.771689923332E+00  1.909664537428E+00  2.056397560962E+00  2.133134984252E+00
  2.212161702483E+00  2.293506233882E+00  2.377194388523E+00  2.463248995400E+00
  2.551689617371E+00  2.642532254130E+00  2.735789033488E+00  2.831467891304E+00
  2.929572240542E+00  3.030100630012E+00  3.133046393512E+00  3.238397290179E+00
  3.346135137036E+00  3.456235434846E+00  3.568666988549E+00  3.683391523751E+00
  3.800363300852E+00  3.919528728671E+00  4.040825979525E+00  4.164184608006E+00
  4.289525175829E+00  4.416758885396E+00  4.545787224890E+00  4.676501627952E+00
  4.808783151197E+00  4.942502173039E+00  5.077518117509E+00  5.213679206922E+00
  5.350822247487E+00  5.488772452066E+00  5.627343304498E+00  5.766336470011E+00
  5.905541756365E+00  6.044737130439E+00  6.183688795038E+00  6.322151330704E+00
  6.459867907241E+00  6.596570569645E+00  6.731980602930E+00  6.865808980170E+00
  6.997756897835E+00  7.127516402117E+00  7.254771109601E+00  7.379197025104E+00
  7.500463458989E+00  7.618234045577E+00  7.732167863595E+00  7.841920658750E+00
  7.947146167633E+00  8.047497541181E+00  8.142628864839E+00  8.232196771448E+00
  8.315862141629E+00  8.393291885195E+00  8.464160795772E+00  8.528153469415E+00
  8.584966276640E+00  8.634309375843E+00  8.675908754677E+00  8.709508284585E+00
  8.734871772328E+00  8.751784991105E+00  8.760057672678E+00  8.759525440895E+00
  8.750051666102E+00  8.731529219227E+00  8.703882103841E+00  8.667066944233E+00
  8.621074307544E+00  8.565929838309E+00  8.501695184371E+00  8.428468694068E+00
  8.346385865889E+00  8.255619533466E+00  8.156379770741E+00  8.048913504577E+00
  7.933503824769E+00  7.810468984501E+00  7.680161087687E+00  7.542964463269E+00
  7.399293730490E+00  7.249591563246E+00  7.094326165854E+00  6.933988476916E+00
  6.769089122252E+00  6.600155142125E+00  6.427726522103E+00  6.252352560709E+00
  6.074588110585E+00  5.894989732994E+00  5.714111808126E+00  5.532502645728E+00
  5.350700642009E+00  5.169230529480E+00  4.988599766349E+00  4.809295111293E+00
  4.631779427718E+00  4.456488759245E+00  4.283829714794E+00  4.114177197664E+00
  3.947872508178E+00  3.785221844078E+00  3.626495216814E+00  3.471925795470E+00
  3.321709683251E+00  3.176006124484E+00  3.034938133045E+00  2.898593526190E+00
  2.767026341048E+00  2.640258604749E+00  2.518282423336E+00  2.401062349503E+00
  2.288537984755E+00  2.180626768018E+00  2.077226900002E+00  1.978220350793E+00
  1.883475897228E+00  1.792852136551E+00  1.706200423692E+00  1.623367681098E+00
  1.544199032516E+00  1.468540215315E+00  1.396239729896E+00  1.327150689562E+00
  1.261132339864E+00  1.198051222973E+00  1.137781970239E+00  1.080207714621E+00
  1.025220124290E+00  9.727190691470E-01  9.226115871132E-01  8.748092544891E-01
  8.292250153421E-01  7.857732747246E-01  7.443699673797E-01  7.049327981515E-01
  6.673815569106E-01  6.316382828776E-01  5.976273362295E-01  5.652754857230E-01
  5.345119520203E-01  5.052684258965E-01  4.774790602339E-01  4.510804380745E-01
  4.260115193467E-01  4.022135694046E-01  3.796300729998E-01  3.582066377183E-01
  3.378908912250E-01  3.186323768531E-01  3.003824521322E-01  2.830941947467E-01
  2.667223377999E-01  2.512232931581E-01  2.365552281755E-01  2.226780396798E-01
  2.095532812703E-01  1.971441231399E-01  1.854152995565E-01  1.743330581058E-01
  1.638651089538E-01  1.539805744963E-01  1.446499395853E-01  1.358450024826E-01
  1.275388266762E-01  1.197056936489E-01  1.123210567232E-01  1.053614960158E-01
  9.880467457321E-02  9.262929572421E-02  8.681506167652E-02  8.134263337235E-02
  7.619359160962E-02  7.135039942622E-02  6.679636573818E-02  6.251561021656E-02
  5.849302938267E-02  5.471426389767E-02  5.116566701889E-02  4.783427419318E-02
  4.470777375528E-02  4.177447869842E-02  3.902329948326E-02  3.644371785103E-02
  3.402576160680E-02  3.175998033928E-02  2.963742204381E-02  2.764961061650E-02
  2.578852418818E-02  2.404657426799E-02  2.241658566792E-02  2.089177718055E-02
  1.946574298393E-02  1.813243474867E-02  1.688614442379E-02  1.572148767901E-02
  1.463338798271E-02  1.361706129572E-02  1.266800136228E-02  1.178196558063E-02
  1.095496143682E-02  1.018323348562E-02  9.463250863763E-03  8.791695321107E-03
  8.165449756011E-03  7.581587241585E-03  7.037360529968E-03  6.530192022024E-03
  6.057664190120E-03  5.617510441779E-03  5.207606412128E-03  4.825961673077E-03
  4.470711847183E-03  4.140111114106E-03  3.832525097485E-03  3.546424120008E-03
  3.280376814313E-03  3.033044077298E-03  2.803173355307E-03  2.589593247595E-03
  2.391208415417E-03  2.206994784078E-03  2.035995025282E-03  1.877314307172E-03
  1.730116299543E-03  1.593619421854E-03  1.467093321842E-03  1.349855572753E-03
  1.241268577483E-03  1.140736668224E-03  1.047703390545E-03  9.616489612102E-04
  8.820878894435E-04  8.085667517512E-04  7.406621108735E-04  6.779785698668E-04
  6.201469527821E-04  5.668226038592E-04  5.176837976089E-04  4.724302526015E-04
  4.307817422145E-04  3.924767960112E-04  3.572714858252E-04  3.249382910102E-04
  2.952650376733E-04  2.680539070548E-04  2.431205085315E-04  2.202930130185E-04
  1.994113428161E-04  1.803264142021E-04  1.628994293015E-04  1.470012139811E-04
  1.325115987131E-04  1.193188395375E-04  1.073190764218E-04  9.641582647973E-05
  8.651950966004E-05  7.754700466232E-05  6.942123297482E-05  6.207076906278E-05
  5.542947486552E-05  4.943615688583E-05  4.403424427775E-05  3.917148645714E-05
  3.479966887392E-05  3.087434569529E-05  2.735458825442E-05  2.420274821915E-05
  2.138423452913E-05  1.886730323781E-05  1.662285947615E-05  1.462427082922E-05
  1.284719148338E-05  1.126939656163E-05  9.870626117228E-06  8.632438301833E-06
  7.538071264217E-06  6.572313369189E-06  5.721381355085E-06  4.972806071778E-06
  4.315325460682E-06  3.738784454136E-06  3.234041484422E-06  2.792881303090E-06
  2.407933819719E-06  2.072598676240E-06  1.780975278886E-06  1.527798015113E-06
  1.308376387719E-06  1.118539803235E-06  9.545867565458E-07  8.132381589175E-07
  6.915945621690E-07  5.870970377887E-07  4.974914763321E-07  4.207960795030E-07
  3.552718248876E-07  2.993956913361E-07  2.518364414309E-07  2.114327662783E-07
  1.771736069389E-07  1.481804761016E-07  1.236916130283E-07  1.030478142748E-07
  8.567979216020E-08  7.109692233828E-08  5.887725106200E-08  4.865864176475E-08
  4.013094936493E-08  3.302911918576E-08  2.712711553692E-08  2.223259279968E-08
  1.818222926907E-08  1.483765102114E-08  1.208187967912E-08  9.816244146108E-09
  7.957702152692E-09  6.436522841139E-09  5.194286581132E-09  4.182162796678E-09
  3.359430793806E-09  2.692212429600E-09  2.152388972556E-09  1.716677690572E-09
  1.365846586026E-09  1.084048294641E-09  8.582565018636E-10  6.777903176207E-10
  5.339139166697E-10  4.195004090818E-10  3.287503747776E-10  2.569567938683E-10
  2.003092471380E-10  1.557312636366E-10  1.207455693291E-10  9.336275532105E-11
  7.198954862140E-11  5.535344395765E-11  4.244095212199E-11  3.244714804684E-11
  2.473456875312E-11  1.879982510420E-11  1.424655877009E-11  1.076360305794E-11
  8.107398719911E-12  6.087878304615E-12  4.557169301865E-12  3.400580953454E-12
  2.529435407789E-12  1.875383707238E-12  1.385913361690E-12  1.020809094427E-12
  7.493735653954E-13  5.482520406826E-13  3.997354153496E-13  2.904408403850E-13
  2.102894108437E-13  1.517167493136E-13  1.090655434248E-13  7.811974078075E-14
  5.574863550418E-14  3.963589861394E-14  2.807402918697E-14  1.980900519624E-14
  1.392331112264E-14  9.748193605396E-15  6.798092698842E-15  4.721833231375E-15
  3.266433961025E-15  2.250378584037E-15  1.543953733718E-15  1.054843978722E-15
  7.176214472032E-16  4.861088562100E-16  3.278536467942E-16  2.201466031810E-16
  1.471655827229E-16  9.793530821658E-17  6.487647197131E-17  4.277851967640E-17
  2.807566848185E-17  1.833896959057E-17  1.192158806767E-17  7.712241798791E-18
  4.964616191567E-18  0.000000000000E+00  0.000000000000E+00  0.000000000000E+00
  0.000000000000E+00
</data>
</radfunc>
</valence-charge>
<pseudocore-charge matching-radius="1.10541324582"
 number-of-continuous-derivatives="4">
<annotation model-charge-form="Teter function with specified parameters" />
<radfunc>
<data npts="290">
  5.424579158987E+01  5.424368828250E+01  5.423740049520E+01  5.422690932284E+01
  5.421232094907E+01  5.419313514493E+01  5.416867706974E+01  5.414066215668E+01
  5.410585673294E+01  5.406821132477E+01  5.402576036695E+01  5.397959724428E+01
  5.392377604355E+01  5.386544093263E+01  5.380712922930E+01  5.373991712550E+01
  5.366245913838E+01  5.358897638510E+01  5.350629685934E+01  5.341328562631E+01
  5.330867202316E+01  5.321567769757E+01  5.311354731144E+01  5.300140261122E+01
  5.287828496966E+01  5.274314889013E+01  5.259485517430E+01  5.247425822540E+01
  5.234500205031E+01  5.220648784780E+01  5.205807893805E+01  5.189909891992E+01
  5.172882983081E+01  5.154651032881E+01  5.135133392037E+01  5.114244726136E+01
  5.091894856441E+01  5.067988615122E+01  5.051137161427E+01  5.033518526268E+01
  5.015100670422E+01  4.995850506337E+01  4.975733894445E+01  4.954715643420E+01
  4.932759514909E+01  4.909828233283E+01  4.885883501028E+01  4.860886020417E+01
  4.834795522191E+01  4.807570801988E+01  4.779169765349E+01  4.749549482174E+01
  4.718666251550E+01  4.686475677942E+01  4.652932759790E+01  4.617991991618E+01
  4.581607480790E+01  4.543733080139E+01  4.504322537707E+01  4.463329664878E+01
  4.420708524238E+01  4.376413638484E+01  4.330400221748E+01  4.282624434654E+01
  4.233043664434E+01  4.181616831362E+01  4.128304722688E+01  4.100930035131E+01
  4.073070355164E+01  4.044721472558E+01  4.015879367086E+01  3.986540222437E+01
  3.956700440625E+01  3.926356656869E+01  3.895505754976E+01  3.864144883197E+01
  3.832271470572E+01  3.799883243752E+01  3.766978244290E+01  3.733554846399E+01
  3.699611775159E+01  3.665148125171E+01  3.630163379627E+01  3.594657429793E+01
  3.558630594882E+01  3.522083642277E+01  3.485017808109E+01  3.447434818125E+01
  3.409336908839E+01  3.370726848912E+01  3.331607960732E+01  3.291984142141E+01
  3.251859888256E+01  3.211240313345E+01  3.170131172683E+01  3.128538884329E+01
  3.086470550762E+01  3.043933980297E+01  3.000937708196E+01  2.957491017397E+01
  2.913603958777E+01  2.869287370830E+01  2.824552898684E+01  2.779413012329E+01
  2.733881023962E+01  2.687971104301E+01  2.641698297780E+01  2.595078536454E+01
  2.548128652514E+01  2.500866389237E+01  2.453310410248E+01  2.405480306927E+01
  2.357396603814E+01  2.309080761839E+01  2.260555179220E+01  2.211843189862E+01
  2.162969059079E+01  2.113957976475E+01  2.064836045801E+01  2.015630271628E+01
  1.966368542647E+01  1.917079611443E+01  1.867793070568E+01  1.818539324748E+01
  1.769349559077E+01  1.720255703048E+01  1.671290390283E+01  1.622486913833E+01
  1.573879176942E+01  1.525501639175E+01  1.477389257827E+01  1.429577424559E+01
  1.382101897226E+01  1.334998726871E+01  1.288304179918E+01  1.242054655592E+01
  1.196286598652E+01  1.151036407539E+01  1.106340338100E+01  1.062234403056E+01
  1.018754267454E+01  9.759351403789E+00  9.338116632261E+00  8.924177949176E+00
  8.517866944645E+00  8.119506013432E+00  7.729407141996E+00  7.347870684470E+00
  6.975184133744E+00  6.611620894320E+00  6.257439064113E+00  5.912880232815E+00
  5.578168304917E+00  5.253508355873E+00  4.939085530267E+00  4.635063991159E+00
  4.341585930064E+00  4.058770647169E+00  3.786713711547E+00  3.525486211127E+00
  3.275134102115E+00  3.035677667368E+00  2.807111092967E+00  2.589402171761E+00
  2.382492142164E+00  2.186295669765E+00  2.000700978521E+00  1.825570137291E+00
  1.660739506421E+00  1.506020347763E+00  1.361199600187E+00  1.226040821060E+00
  1.100285292534E+00  9.836532897370E-01  8.758455060552E-01  7.765446287940E-01
  6.854170564850E-01  6.021147470873E-01  5.262771843085E-01  4.575334472726E-01
  3.955043668431E-01  3.398047500886E-01  2.900456527105E-01  2.458366777672E-01
  2.067882777807E-01  1.725140363291E-01  1.426329045613E-01  1.167713677530E-01
  9.456551708905E-02  7.566300233526E-02  5.972484197732E-02  4.642706876917E-02
  3.546219045188E-02  2.654044767591E-02  1.939085386572E-02  1.376200488009E-02
  9.422649801831E-03  6.162017985061E-03  3.789901528539E-03  2.136496552410E-03
  1.052010942102E-03  4.060504879500E-04  8.679948505433E-05  1.575295036601E-08
  6.786357518956E-05  2.276111331692E-04  4.302215106733E-04  6.388681799890E-04
  8.274069660605E-04  9.788367597435E-04  1.083780675514E-03  1.139017910146E-03
  1.146094273375E-03  1.110036277125E-03  1.038189866132E-03  9.392004607256E-04
  8.221461023140E-04  6.958303093766E-04  5.682359521957E-04  4.461362371729E-04
  3.348539602271E-04  2.381557430920E-04  1.582641915524E-04  9.596797152450E-05
  5.080781388507E-05  2.131551554087E-05  5.283135864355E-06  4.077304007810E-08
  2.723466350922E-06  1.051077540692E-05  2.082625356860E-05  3.148813738311E-05
  4.080686532237E-05  4.762925280006E-05  5.133302559585E-05  5.177871175882E-05
  4.922841394511E-05  4.424258680678E-05  3.756655253516E-05  3.001810300203E-05
  2.238623808496E-05  1.534902896403E-05  9.415986671473E-06  4.897418633643E-06
  1.900349846286E-06  3.479470913272E-07  1.725983215175E-08  5.886699616914E-07
  1.699838245025E-06  2.997172874132E-06  4.178857031838E-06  5.025103627876E-06
  5.413333243209E-06  5.318129638680E-06  4.797839267978E-06  3.971294943042E-06
  2.989164707474E-06  2.004744966500E-06  1.148622029493E-06  5.106106761273E-07
  1.309236825238E-07  8.763724373085E-10  0.000000000000E+00  0.000000000000E+00
  0.000000000000E+00  0.000000000000E+00  0.000000000000E+00  0.000000000000E+00
  0.000000000000E+00  0.000000000000E+00  0.000000000000E+00  0.000000000000E+00
  0.000000000000E+00  0.000000000000E+00  0.000000000000E+00  0.000000000000E+00
  0.000000000000E+00  0.000000000000E+00  0.000000000000E+00  0.000000000000E+00
  0.000000000000E+00  0.000000000000E+00  0.000000000000E+00  0.000000000000E+00
  0.000000000000E+00  0.000000000000E+00  0.000000000000E+00  0.000000000000E+00
  0.000000000000E+00  0.000000000000E+00
</data>
</radfunc>
</pseudocore-charge>
<semilocal-potentials set="scalar_relativistic">
<slps n="6" l="s" rc="2.10509810110" eref="-0.352668901381">
<radfunc>
<data npts="290">
  4.412726223358E+01  4.409843250325E+01  4.401240437033E+01  4.386939114043E+01
  4.367160900777E+01  4.341339737138E+01  4.308732049613E+01  4.271801638997E+01
  4.226531881999E+01  4.178315931050E+01  4.124854969322E+01  4.067785444939E+01
  4.000216688126E+01  3.931236109474E+01  3.863892427141E+01  3.788194105383E+01
  3.703412460280E+01  3.625312494830E+01  3.540032553107E+01  3.447229724841E+01
  3.346615177398E+01  3.260349791953E+01  3.168872081265E+01  3.072152600573E+01
  2.970209863013E+01  2.863115779458E+01  2.751000512593E+01  2.663732235248E+01
  2.573851584180E+01  2.481484766362E+01  2.386779195207E+01  2.289903336378E+01
  2.191046237436E+01  2.090416729596E+01  1.988242298412E+01  1.884767629594E+01
  1.780252845977E+01  1.674971461566E+01  1.604498149136E+01  1.533897002732E+01
  1.463255937900E+01  1.392663867960E+01  1.322210340282E+01  1.251985169447E+01
  1.182078070906E+01  1.112578298728E+01  1.043574290962E+01  9.751533259883E+00
  9.074011930397E+00  8.404018798325E+00  7.742372799233E+00  7.089869220852E+00
  6.447277236033E+00  5.815337689836E+00  5.194761151365E+00  4.586226236513E+00
  3.990378203207E+00  3.407827816250E+00  2.839150474324E+00  2.284885587351E+00
  1.745536188158E+00  1.221568758330E+00  7.134132442725E-01  2.214632358276E-01
 -2.539237236115E-01 -7.124257297924E-01 -1.153756050392E+00 -1.367901721944E+00
 -1.577662637990E+00 -1.783012635830E+00 -1.983927665894E+00 -2.180385781678E+00
 -2.372367131844E+00 -2.559853954888E+00 -2.742830576747E+00 -2.921283411766E+00
 -3.095200967403E+00 -3.264573853093E+00 -3.429394793670E+00 -3.589658647753E+00
 -3.745362431497E+00 -3.896505348119E+00 -4.043088823581E+00 -4.185116548826E+00
 -4.322594528930E+00 -4.455531139537E+00 -4.583937190906E+00 -4.707825999891E+00
 -4.827213470127E+00 -4.942118180681E+00 -5.052561483363E+00 -5.158567608852E+00
 -5.260163781736E+00 -5.357380344497E+00 -5.450250890375E+00 -5.538812404992E+00
 -5.623105416474E+00 -5.703174153739E+00 -5.779066712442E+00 -5.850835227974E+00
 -5.918536054712E+00 -5.982229950575E+00 -6.041982265722E+00 -6.097863134043E+00
 -6.149947665851E+00 -6.198316139949E+00 -6.243054192989E+00 -6.284253003764E+00
 -6.322009469784E+00 -6.356426373199E+00 -6.387612532820E+00 -6.415682938697E+00
 -6.440758865372E+00 -6.462967959674E+00 -6.482444298601E+00 -6.499328412579E+00
 -6.513767269172E+00 -6.525914212117E+00 -6.535928850399E+00 -6.543976892058E+00
 -6.550229917368E+00 -6.554865086161E+00 -6.558064774249E+00 -6.560016134218E+00
 -6.560910576315E+00 -6.560943165715E+00 -6.560311933232E+00 -6.559217097373E+00
 -6.557860196733E+00 -6.556443132919E+00 -6.555167125550E+00 -6.554231582409E+00
 -6.553832889428E+00 -6.554163126955E+00 -6.555408720546E+00 -6.557749036363E+00
 -6.561354933141E+00 -6.566387284431E+00 -6.572995486551E+00 -6.581315969194E+00
 -6.591470726949E+00 -6.603565891055E+00 -6.617690361416E+00 -6.633914519287E+00
 -6.652289040971E+00 -6.672843832426E+00 -6.695587103745E+00 -6.720504601118E+00
 -6.747559012111E+00 -6.776689557912E+00 -6.807811783674E+00 -6.840817555299E+00