<?xml version="1.0" encoding="UTF-8" ?>
<psml version="1.1" energy_unit="hartree" length_unit="bohr"
 uuid="6248ad80-1d66-11e8-758b-004aefb568d4"
 xmlns="http://esl.cecam.org/PSML/ns/1.1">
<provenance creator="ONCVPSP-3.3.0+psml-3.3.0-73 (scalar-relativistic)"
 date="2018-03-01">
<annotation action="semilocal-pseudopotential-generation"
 action-cont="projectors-generation" />
<input-file name="oncvpsp-input">
<![CDATA[# atsym z nc nv iexc psfile
Tl 81 10 5 -116133 upf
# n l f
1 0 2.0
2 0 2.0
2 1 6.0
3 0 2.0
3 1 6.0
3 2 10.0
4 0 2.0
4 1 6.0
4 2 10.0
4 3 14.0
5 0 2.0
5 1 6.0
5 2 10.0
6 0 2.0
6 1 1.0
# lmax
2
# l rc ep ncon nbas qcut
0 1.4 0.0 4 8 9.0
1 1.5 0.0 4 8 8.4
2 1.4 0.0 4 8 9.0
# lloc lpopt rc5 dvloc0
4 5 1.3 0.0
# l nproj debl
0 2 1.0
1 2 1.0
2 2 2.5
# icmod fcfact rcfact
3 9.0 1.2
# epsh1 epsh2 depsh
-12.0 12.0 0.02
# rlmax drl
6.0 0.01
 0
]]>
</input-file>
</provenance>
<pseudo-atom-spec atomic-label="Tl" atomic-number="81" z-pseudo="21"
 flavor="Hamann&apos;s oncvpsp" relativity="scalar" spin-dft="no"
 core-corrections="yes">
<annotation pseudo-energy="-174.634672227" />
<exchange-correlation>
<annotation oncvpsp-xc-code="-116133" oncvpsp-xc-type="libxc-interface" />
<libxc-info number-of-functionals="2">
<functional name="Perdew, Burke &amp; Ernzerhof SOL (GGA)" type="exchange"
 id="116" />
<functional name="Perdew, Burke &amp; Ernzerhof SOL (GGA)" type="correlation"
 id="133" />
</libxc-info>
</exchange-correlation>
<valence-configuration total-valence-charge="21">
<shell n="5" l="s" occupation="2" />
<shell n="5" l="p" occupation="6" />
<shell n="5" l="d" occupation="10" />
<shell n="6" l="s" occupation="2" />
<shell n="6" l="p" occupation="1" />
</valence-configuration>
</pseudo-atom-spec>
<grid npts="457">
<annotation type="sampled from oncvpsp log grid"
 recipe="r(i:1..N) = r1*exp(a*(i-1)) + r=0; resampled"
 recipe-cont="r1: scale; a: step" scale="0.617283950617E-05"
 step="0.119285708653E-01" delta="0.500000000000E-02" rmax="44.0862366899" />
<grid-data>
  0.000000000000E+00  5.034229527132E-03  1.005547840830E-02  1.508482106348E-02
  2.008502899497E-02  2.519429444232E-02  3.049231521517E-02  3.560713762894E-02
  4.108688469256E-02  4.629225516251E-02  5.153863959675E-02  5.669921561583E-02
  6.237652131689E-02  6.780859383762E-02  7.283964381425E-02  7.824397190261E-02
  8.404927342464E-02  8.921472189043E-02  9.469762530576E-02  1.005174936213E-01
  1.066950358184E-01  1.119093217371E-01  1.173784346723E-01  1.231148282578E-01
  1.291315647484E-01  1.354423447633E-01  1.420615384838E-01  1.472373699362E-01
  1.526017762239E-01  1.581616278312E-01  1.639240455596E-01  1.698964096482E-01
  1.760863692255E-01  1.825018521063E-01  1.891510749455E-01  1.960425537609E-01
  2.031851148411E-01  2.105879060489E-01  2.156723404525E-01  2.208795334404E-01
  2.262124488958E-01  2.316741222619E-01  2.372676622698E-01  2.429962527077E-01
  2.488631542330E-01  2.548717062288E-01  2.610253287040E-01  2.673275242402E-01
  2.737818799855E-01  2.803920696959E-01  2.871618558266E-01  2.940950916737E-01
  3.011957235671E-01  3.084677931169E-01  3.159154395139E-01  3.235429018855E-01
  3.313545217086E-01  3.393547452808E-01  3.475481262508E-01  3.559393282110E-01
  3.645331273513E-01  3.733344151781E-01  3.823482012982E-01  3.915796162703E-01
  4.010339145255E-01  4.107164773579E-01  4.206328159872E-01  4.256804097790E-01
  4.307885746964E-01  4.359580375927E-01  4.411895340438E-01  4.464838084524E-01
  4.518416141538E-01  4.572637135236E-01  4.627508780859E-01  4.683038886230E-01
  4.739235352864E-01  4.796106177099E-01  4.853659451224E-01  4.911903364639E-01
  4.970846205014E-01  5.030496359474E-01  5.090862315788E-01  5.151952663578E-01
  5.213776095540E-01  5.276341408687E-01  5.339657505591E-01  5.403733395658E-01
  5.468578196406E-01  5.534201134763E-01  5.600611548380E-01  5.667818886961E-01
  5.735832713604E-01  5.804662706168E-01  5.874318658642E-01  5.944810482545E-01
  6.016148208336E-01  6.088341986836E-01  6.161402090678E-01  6.235338915766E-01
  6.310162982755E-01  6.385884938548E-01  6.462515557811E-01  6.540065744505E-01
  6.618546533439E-01  6.697969091840E-01  6.778344720942E-01  6.859684857593E-01
  6.942001075884E-01  7.025305088795E-01  7.109608749861E-01  7.194924054859E-01
  7.281263143517E-01  7.368638301239E-01  7.457061960854E-01  7.546546704385E-01
  7.637105264837E-01  7.728750528015E-01  7.821495534351E-01  7.915353480764E-01
  8.010337722533E-01  8.106461775203E-01  8.203739316506E-01  8.302184188304E-01
  8.401810398563E-01  8.502632123346E-01  8.604663708826E-01  8.707919673332E-01
  8.812414709412E-01  8.918163685925E-01  9.025181650156E-01  9.133483829958E-01
  9.243085635918E-01  9.354002663549E-01  9.466250695511E-01  9.579845703857E-01
  9.694803852304E-01  9.811141498531E-01  9.928875196514E-01  1.004802169887E+00
  1.016859795926E+00  1.029062113477E+00  1.041410858839E+00  1.053907789145E+00
  1.066554682614E+00  1.079353338806E+00  1.092305578871E+00  1.105413245818E+00
  1.118678204768E+00  1.132102343225E+00  1.145687571344E+00  1.159435822200E+00
  1.173349052066E+00  1.187429240691E+00  1.201678391579E+00  1.216098532278E+00
  1.230691714666E+00  1.245460015242E+00  1.260405535424E+00  1.275530401850E+00
  1.290836766672E+00  1.306326807872E+00  1.322002729566E+00  1.337866762321E+00
  1.353921163469E+00  1.370168217431E+00  1.386610236040E+00  1.403249558872E+00
  1.420088553579E+00  1.437129616222E+00  1.454375171616E+00  1.471827673676E+00
  1.489489605760E+00  1.507363481029E+00  1.525451842801E+00  1.543757264915E+00
  1.562282352094E+00  1.581029740319E+00  1.600002097203E+00  1.619202122369E+00
  1.638632547838E+00  1.658296138412E+00  1.678195692073E+00  1.698334040378E+00
  1.718714048862E+00  1.739338617448E+00  1.760210680858E+00  1.781333209028E+00
  1.802709207536E+00  1.824341718027E+00  1.846233818643E+00  1.868388624467E+00
  1.890809287960E+00  1.913498999416E+00  1.936460987409E+00  1.959698519258E+00
  1.983214901489E+00  2.007013480307E+00  2.031097642071E+00  2.055470813775E+00
  2.080136463541E+00  2.105098101103E+00  2.130359278316E+00  2.155923589656E+00
  2.181794672732E+00  2.207976208805E+00  2.234471923311E+00  2.261285586390E+00
  2.288421013427E+00  2.315882065588E+00  2.343672650375E+00  2.371796722180E+00
  2.400258282846E+00  2.429061382240E+00  2.458210118827E+00  2.487708640253E+00
  2.517561143936E+00  2.547771877663E+00  2.578345140195E+00  2.609285281877E+00
  2.640596705260E+00  2.672283865723E+00  2.704351272112E+00  2.736803487377E+00
  2.769645129225E+00  2.802880870776E+00  2.836515441225E+00  2.870553626520E+00
  2.905000270038E+00  2.939860273279E+00  2.975138596558E+00  3.010840259717E+00
  3.046970342834E+00  3.083533986948E+00  3.120536394791E+00  3.157982831528E+00
  3.195878625507E+00  3.234229169013E+00  3.273039919041E+00  3.312316398069E+00
  3.352064194846E+00  3.392288965184E+00  3.432996432767E+00  3.474192389960E+00
  3.515882698639E+00  3.558073291023E+00  3.600770170515E+00  3.643979412562E+00
  3.687707165512E+00  3.731959651498E+00  3.776743167316E+00  3.822064085324E+00
  3.867928854348E+00  3.914344000600E+00  3.961316128607E+00  4.008851922151E+00
  4.056958145217E+00  4.105641642959E+00  4.154909342675E+00  4.204768254787E+00
  4.255225473844E+00  4.306288179530E+00  4.357963637685E+00  4.410259201337E+00
  4.463182311753E+00  4.516740499494E+00  4.570941385488E+00  4.625792682114E+00
  4.681302194299E+00  4.737477820631E+00  4.794327554478E+00  4.851859485132E+00
  4.910081798954E+00  4.969002780541E+00  5.028630813908E+00  5.088974383674E+00
  5.150042076279E+00  5.211842581194E+00  5.274384692168E+00  5.337677308474E+00
  5.401729436176E+00  5.466550189410E+00  5.532148791683E+00  5.598534577183E+00
  5.665716992109E+00  5.733705596015E+00  5.802510063167E+00  5.872140183925E+00
  5.942605866132E+00  6.013917136526E+00  6.086084142164E+00  6.159117151870E+00
  6.233026557692E+00  6.307822876385E+00  6.383516750901E+00  6.460118951912E+00
  6.537640379335E+00  6.616092063887E+00  6.695485168654E+00  6.775830990677E+00
  6.857140962566E+00  6.939426654116E+00  7.022699773966E+00  7.106972171253E+00
  7.192255837308E+00  7.278562907356E+00  7.365905662244E+00  7.454296530191E+00
  7.543748088554E+00  7.634273065616E+00  7.725884342404E+00  7.818594954512E+00
  7.912418093967E+00  8.007367111094E+00  8.103455516427E+00  8.200696982624E+00
  8.299105346416E+00  8.398694610573E+00  8.499478945900E+00  8.601472693251E+00
  8.704690365570E+00  8.809146649956E+00  8.914856409756E+00  9.021834686673E+00
  9.130096702913E+00  9.239657863348E+00  9.350533757708E+00  9.462740162801E+00
  9.576293044754E+00  9.691208561291E+00  9.807503064027E+00  9.925193100795E+00
  1.004429541800E+01  1.016482696302E+01  1.028680488658E+01  1.041024654522E+01
  1.053516950376E+01  1.066159153780E+01  1.078953063626E+01  1.091900500389E+01
  1.105003306394E+01  1.118263346071E+01  1.131682506223E+01  1.145262696298E+01
  1.159005848654E+01  1.172913918838E+01  1.186988885864E+01  1.201232752494E+01
  1.215647545524E+01  1.230235316070E+01  1.244998139863E+01  1.259938117541E+01
  1.275057374952E+01  1.290358063451E+01  1.305842360213E+01  1.321512468535E+01
  1.337370618158E+01  1.353419065576E+01  1.369660094363E+01  1.386096015495E+01
  1.402729167681E+01  1.419561917693E+01  1.436596660705E+01  1.453835820634E+01
  1.471281850481E+01  1.488937232687E+01  1.506804479479E+01  1.524886133233E+01
  1.543184766832E+01  1.561702984034E+01  1.580443419842E+01  1.599408740880E+01
  1.618601645771E+01  1.638024865520E+01  1.657681163907E+01  1.677573337873E+01
  1.697704217928E+01  1.718076668543E+01  1.738693588566E+01  1.759557911628E+01
  1.780672606568E+01  1.802040677847E+01  1.823665165981E+01  1.845549147973E+01
  1.867695737748E+01  1.890108086601E+01  1.912789383640E+01  1.935742856244E+01
  1.958971770519E+01  1.982479431765E+01  2.006269184946E+01  2.030344415166E+01
  2.054708548148E+01  2.079365050726E+01  2.104317431334E+01  2.129569240510E+01
  2.155124071396E+01  2.180985560253E+01  2.207157386976E+01  2.233643275620E+01
  2.260446994927E+01  2.287572358867E+01  2.315023227173E+01  2.342803505899E+01
  2.370917147970E+01  2.399368153745E+01  2.428160571590E+01  2.457298498449E+01
  2.486786080431E+01  2.516627513396E+01  2.546827043557E+01  2.577388968079E+01
  2.608317635696E+01  2.639617447325E+01  2.671292856693E+01  2.703348370973E+01
  2.735788551425E+01  2.768618014042E+01  2.801841430210E+01  2.835463527373E+01
  2.869489089701E+01  2.903922958778E+01  2.938770034283E+01  2.974035274694E+01
  3.009723697991E+01  3.045840382367E+01  3.082390466955E+01  3.119379152558E+01
  3.156811702389E+01  3.194693442818E+01  3.233029764132E+01  3.271826121301E+01
  3.311088034757E+01  3.350821091174E+01  3.391030944268E+01  3.431723315599E+01
  3.472903995386E+01  3.514578843331E+01  3.556753789451E+01  3.599434834924E+01
  3.642628052944E+01  3.686339589579E+01  3.730575664654E+01  3.775342572630E+01
  3.820646683501E+01  3.866494443703E+01  3.912892377028E+01  3.959847085552E+01
  4.007365250579E+01  4.055453633586E+01  4.104119077189E+01  4.153368506115E+01
  4.203208928188E+01  4.253647435326E+01  4.304691204550E+01  4.356347499005E+01
  4.408623668993E+01
</grid-data>
</grid>
<valence-charge total-charge="21" is-unscreening-charge="yes"
 rescaled-to-z-pseudo="no">
<radfunc>
<data npts="457">
  2.635898158134E+00  2.638289997613E+00  2.645440599352E+00  2.657372256696E+00
  2.673965502122E+00  2.695791208452E+00  2.723619874009E+00  2.755502692120E+00
  2.795124048789E+00  2.837991241521E+00  2.886346353711E+00  2.938948560322E+00
  3.002581358828E+00  3.069108765598E+00  3.135638171414E+00  3.212356784151E+00
  3.300814684968E+00  3.384774897145E+00  3.479290057874E+00  3.585672384538E+00
  3.705392411314E+00  3.811871503955E+00  3.928868234260E+00  4.057400353535E+00
  4.198578495750E+00  4.353613098107E+00  4.523821373536E+00  4.662291586860E+00
  4.810747083091E+00  4.969875019865E+00  5.140403260570E+00  5.323101397399E+00
  5.518781464051E+00  5.728298242843E+00  5.952549051604E+00  6.192472873078E+00
  6.449048663516E+00  6.723292647211E+00  6.916454708665E+00  7.118253320669E+00
  7.329011245619E+00  7.549054787342E+00  7.778712502466E+00  8.018313686766E+00
  8.268186610420E+00  8.528656474012E+00  8.800043055107E+00  9.082658013207E+00
  9.376801819014E+00  9.682760272270E+00  1.000080057097E+01  1.033116689374E+01
  1.067407545668E+01  1.102970900604E+01  1.139821070905E+01  1.177967740748E+01
  1.217415220137E+01  1.258161633580E+01  1.300198036962E+01  1.343507461453E+01
  1.388063884391E+01  1.433831128544E+01  1.480761692889E+01  1.528795520235E+01
  1.577858709541E+01  1.627862183815E+01  1.678700327988E+01  1.704394536261E+01
  1.730249615173E+01  1.756247101535E+01  1.782367244270E+01  1.808588964486E+01
  1.834889816967E+01  1.861245953408E+01  1.887632087733E+01  1.914021463878E+01
  1.940385826423E+01  1.966695394505E+01  1.992918839455E+01  2.019023266642E+01
  2.044974202010E+01  2.070735583838E+01  2.096269760264E+01  2.121537493140E+01
  2.146497968793E+01  2.171108816300E+01  2.195326133877E+01  2.219104523994E+01
  2.242397137851E+01  2.265155729816E+01  2.287330722435E+01  2.308871282612E+01
  2.329725409523E+01  2.349840034800E+01  2.369161135483E+01  2.387633860185E+01
  2.405202668848E+01  2.421811486413E+01  2.437403870604E+01  2.451923193986E+01
  2.465312840285E+01  2.477516414870E+01  2.488477969168E+01  2.498142238591E+01
  2.506454893434E+01  2.513362802009E+01  2.518814305091E+01  2.522759500571E+01
  2.525150536989E+01  2.525941914431E+01  2.525090791051E+01  2.522557293268E+01
  2.518304827490E+01  2.512300390995E+01  2.504514879444E+01  2.494923388284E+01
  2.483505505191E+01  2.470245590548E+01  2.455133042854E+01  2.438162545932E+01
  2.419334294745E+01  2.398654196675E+01  2.376134045193E+01  2.351791662976E+01
  2.325651011678E+01  2.297742265844E+01  2.268101848692E+01  2.236772427876E+01
  2.203802869684E+01  2.169248150611E+01  2.133169225666E+01  2.095632853306E+01
  2.056711377402E+01  2.016482467139E+01  1.975028816310E+01  1.932437803932E+01
  1.888801118578E+01  1.844214349249E+01  1.798776545965E+01  1.752589753518E+01
  1.705758522065E+01  1.658389398355E+01  1.610590401392E+01  1.562470486334E+01
  1.514139000250E+01  1.465705133218E+01  1.417277367946E+01  1.368962930892E+01
  1.320867247534E+01  1.273093404211E+01  1.225741618762E+01  1.178908722057E+01
  1.132687652473E+01  1.087166965500E+01  1.042430360851E+01  9.985562298215E+00
  9.556172261167E+00  9.136798639524E+00  8.728041478702E+00  8.330432393938E+00
  7.944431662862E+00  7.570425807234E+00  7.208725730947E+00  6.859565483514E+00
  6.523101718494E+00  6.199413912694E+00  5.888505402594E+00  5.590305282017E+00
  5.304672813585E+00  5.031409229061E+00  4.770273535634E+00  4.520988350240E+00
  4.283242729056E+00  4.056697313093E+00  3.840989671076E+00  3.635743263903E+00
  3.440577944423E+00  3.255112166387E+00  3.078965028850E+00  2.911758070961E+00
  2.753116874041E+00  2.602672469735E+00  2.460062565439E+00  2.324932599687E+00
  2.196936636223E+00  2.075738109015E+00  1.961010429082E+00  1.852437464183E+00
  1.749713902197E+00  1.652545508783E+00  1.560649289549E+00  1.473753566595E+00
  1.391597978827E+00  1.313933414992E+00  1.240521887852E+00  1.171136357431E+00
  1.105560510694E+00  1.043588504528E+00  9.850246783209E-01  9.296832419334E-01
  8.773879443374E-01  8.279717276870E-01  7.812763711213E-01  7.371521281276E-01
  6.954573608626E-01  6.560581744155E-01  6.188280536119E-01  5.836475045950E-01
  5.504037030896E-01  5.189901509458E-01  4.893063422779E-01  4.612574402582E-01
  4.347539653946E-01  4.097114959119E-01  3.860503806727E-01  3.636954649100E-01
  3.425758288973E-01  3.226245395615E-01  3.037784149308E-01  2.859778012236E-01
  2.691663623037E-01  2.532908811655E-01  2.383010730630E-01  2.241494098527E-01
  2.107909550949E-01  1.981832094327E-01  1.862859657558E-01  1.750611736490E-01
  1.644728126228E-01  1.544867736285E-01  1.450707483669E-01  1.361941259113E-01
  1.278278961819E-01  1.199445598061E-01  1.125180439677E-01  1.055236237979E-01
  9.893784893439E-02  9.273847487241E-02  8.690439875961E-02  8.141559930382E-02
  7.625308048590E-02  7.139881878949E-02  6.683571367907E-02  6.254754107712E-02
  5.851890960931E-02  5.473521940455E-02  5.118262325281E-02  4.784798994003E-02
  4.471886959376E-02  4.178346088750E-02  3.903057996451E-02  3.644963095411E-02
  3.403057796486E-02  3.176391844924E-02  2.964065784438E-02  2.765228540213E-02
  2.579075113006E-02  2.404844377223E-02  2.241816976577E-02  2.089313311525E-02
  1.946691613265E-02  1.813346099575E-02  1.688705208255E-02  1.572229904326E-02
  1.463412057542E-02  1.361772887080E-02  1.266861470569E-02  1.178253314892E-02
  1.095548986439E-02  1.018372798628E-02  9.463715547556E-03  8.792133443295E-03
  8.165863912079E-03  7.581979519358E-03  7.037732627793E-03  6.530545340223E-03
  6.057999901433E-03  5.617829545397E-03  5.207909774930E-03  4.826250060945E-03
  4.470985948657E-03  4.140371558149E-03  3.832772466745E-03  3.546658960653E-03
  3.280599643272E-03  3.033255387556E-03  2.803373619740E-03  2.589782921724E-03
  2.391387939375E-03  2.207164583994E-03  2.036155514252E-03  1.877465885931E-03
  1.730259356938E-03  1.593754335170E-03  1.467220457041E-03  1.349975284645E-03
  1.241381209873E-03  1.140842554034E-03  1.047802851928E-03  9.617423096703E-04
  8.821754259557E-04  8.086487668909E-04  7.407388849549E-04  6.780503730904E-04
  6.202140453917E-04  5.668852363069E-04  5.177422107284E-04  4.724846777880E-04
  4.308324016107E-04  3.925239026984E-04  3.573152440188E-04  3.249788962584E-04
  2.953026770591E-04  2.680887594001E-04  2.431527446027E-04  2.203227957340E-04
  1.994388274542E-04  1.803517486100E-04  1.629227541045E-04  1.470226627922E-04
  1.325312983426E-04  1.193369102023E-04  1.073356319550E-04  9.643097453958E-05
  8.653335193840E-05  7.755963709283E-05  6.943274594023E-05  6.208124760155E-05
  5.543899887735E-05  4.944480133599E-05  4.404207940010E-05  3.917857795538E-05
  3.480607812100E-05  3.088012993062E-05  2.735980077851E-05  2.420743858547E-05
  2.138844873283E-05  1.887108390094E-05  1.662624602907E-05  1.462729968786E-05
  1.284989622210E-05  1.127180808130E-05  9.872772808282E-06  8.634346202100E-06
  7.539764211218E-06  6.573813146766E-06  5.722707834186E-06  4.973977345265E-06
  4.316357972079E-06  3.739693120250E-06  3.234839811830E-06  2.793581498480E-06
  2.408546894150E-06  2.073134543374E-06  1.781442847306E-06  1.528205274842E-06
  1.308730491099E-06  1.118847140326E-06  9.548530252316E-07  8.134684299266E-07
  6.917933392145E-07  5.872683130541E-07  4.976387815292E-07  4.209225327361E-07
  3.553801735585E-07  2.994883513237E-07  2.519155327794E-07  2.115001456231E-07
  1.772308968942E-07  1.482290918284E-07  1.237327861923E-07  1.030826145982E-07
  8.570914676015E-08  7.112163261357E-08  5.889800957073E-08  4.867604436158E-08
  4.014550808013E-08  3.304127305854E-08  2.713724019457E-08  2.224100890640E-08
  1.818920995933E-08  1.484342842321E-08  1.208665062587E-08  9.820175161829E-09
  7.960933796789E-09  6.439173482205E-09  5.196455667796E-09  4.183933685192E-09
  3.360873186241E-09  2.693384470924E-09  2.153339049709E-09  1.717445971969E-09
  1.366466335236E-09  1.084546989083E-09  8.586567823128E-10  6.781107923264E-10
  5.341698404815E-10  4.197042554727E-10  3.289123163627E-10  2.570851049629E-10
  2.004106400823E-10  1.558111690117E-10  1.208083687764E-10  9.341197444099E-11
  7.202801634490E-11  5.538342384275E-11  4.246425021043E-11  3.246520120822E-11
  2.474851683477E-11  1.881056968120E-11  1.425481084115E-11  1.076992165044E-11
  8.112222041650E-12  6.091548803873E-12  4.559953764430E-12  3.402686568880E-12
  2.531022572595E-12  1.876576195050E-12  1.386806375667E-12  1.021475622052E-12
  7.498693769247E-13  5.486196075976E-13  4.000069717572E-13  2.906407666445E-13
  2.104360830532E-13  1.518239693290E-13  1.091436406361E-13  7.817641795303E-14
  5.578961578459E-14  3.966541863450E-14  2.809521348100E-14  1.982414943093E-14
  1.393409554282E-14  9.755843268162E-15  6.803497297314E-15  4.725636347722E-15
  3.269099284611E-15  2.252238842481E-15  1.545246703070E-15  1.055738875828E-15
  7.182381926500E-16  4.865320746120E-16  3.281427988970E-16  2.203432869697E-16
  1.472987716246E-16  9.802509270184E-17  6.493672023023E-17  4.281876110513E-17
  2.810242091116E-17  1.835667021826E-17  1.193324337198E-17  7.719879120424E-18
  4.969595995377E-18  0.000000000000E+00  0.000000000000E+00  0.000000000000E+00
  0.000000000000E+00
</data>
</radfunc>
</valence-charge>
<pseudocore-charge matching-radius="0.736863830124"
 number-of-continuous-derivatives="4">
<annotation model-charge-form="Teter function with specified parameters" />
<radfunc>
<data npts="290">
  2.427959954678E+02  2.427711318493E+02  2.426968114891E+02  2.425728374537E+02
  2.424005081084E+02  2.421739787865E+02  2.418853777531E+02  2.415550526891E+02
  2.411450262914E+02  2.407019996509E+02  2.402029879948E+02  2.396610237340E+02
  2.390066232071E+02  2.383238643142E+02  2.376425153161E+02  2.368585770115E+02
  2.359570039760E+02  2.351035503005E+02  2.341454340142E+02  2.330703124418E+02
  2.318645195968E+02  2.307957088349E+02  2.296252067815E+02  2.283439228430E+02
  2.269420763814E+02  2.254091708910E+02  2.237339737184E+02  2.223770175629E+02
  2.209279656045E+02  2.193812489496E+02  2.177310668575E+02  2.159713944101E+02
  2.140959938912E+02  2.120984304847E+02  2.099720929626E+02  2.077102201005E+02
  2.053059336226E+02  2.027522785416E+02  2.009634103208E+02  1.991029875398E+02
  1.971689603003E+02  1.951593028566E+02  1.930720243393E+02  1.909051805632E+02
  1.886568869766E+02  1.863253328082E+02  1.839087964624E+02  1.814056622102E+02
  1.788144382147E+02  1.761337759210E+02  1.733624908322E+02  1.704995846755E+02
  1.675442689508E+02  1.644959898309E+02  1.613544543652E+02  1.581196579077E+02
  1.547919126650E+02  1.513718772242E+02  1.478605868828E+02  1.442594845632E+02
  1.405704520428E+02  1.367958411870E+02  1.329385048097E+02  1.290018267332E+02
  1.249897505524E+02  1.209068065472E+02  1.167581361157E+02  1.146609325895E+02
  1.125495130378E+02  1.104247008392E+02  1.082873608103E+02  1.061383994737E+02
  1.039787652322E+02  1.018094484396E+02  9.963148136253E+01  9.744593802420E+01
  9.525393392362E+01  9.305662562160E+01  9.085521018628E+01  8.865092449030E+01
  8.644504435203E+01  8.423888351330E+01  8.203379244636E+01  7.983115698311E+01
  7.763239675978E+01  7.543896347087E+01  7.325233892650E+01  7.107403290804E+01
  6.890558081733E+01  6.674854111585E+01  6.460449255078E+01  6.247503116612E+01
  6.036176709783E+01  5.826632115340E+01  5.619032117735E+01  5.413539820563E+01
  5.210318241343E+01  5.009529886248E+01  4.811336305571E+01  4.615897630880E+01
  4.423372095043E+01  4.233915536466E+01  4.047680889114E+01  3.864817660121E+01
  3.685471396980E+01  3.509783146560E+01  3.337888908415E+01  3.169919085073E+01
  3.005997932239E+01  2.846243012043E+01  2.690764652690E+01  2.539665418087E+01
  2.393039591170E+01  2.250972674885E+01  2.113540914851E+01  1.980810847943E+01
  1.852838881049E+01  1.729670904368E+01  1.611341943615E+01  1.497875855485E+01
  1.389285070670E+01  1.285570388586E+01  1.186720827823E+01  1.092713536080E+01
  1.003513763085E+01  9.190748996185E+00  8.393385853734E+00  7.642348878932E+00
  6.936825542849E+00  6.275893368026E+00  5.658523927288E+00  5.083587582526E+00
  4.549858952716E+00  4.056023092195E+00  3.600682351631E+00  3.182363885223E+00
  2.799527758659E+00  2.450575603254E+00  2.133859752722E+00  1.847692790321E+00
  1.590357425804E+00  1.360116613950E+00  1.155223819524E+00  9.739333276073E-01
  8.145104934888E-01  6.752418228701E-01  5.544447712779E-01  4.504771513350E-01
  3.617460381482E-01  2.867160665885E-01  2.239170197534E-01  1.719506154576E-01
  1.294964071827E-01  9.531672747410E-02  6.826061520034E-02  4.726668321553E-02
  3.136489956842E-02  1.967727320155E-02  1.141745374237E-02  5.889274117006E-03
  2.484283882428E-03  6.783399024226E-04  2.733879136157E-05  1.621919087795E-04
  7.831581027037E-04  1.653661387430E-03  2.593729858746E-03  3.473198012703E-03
  4.204816938140E-03  4.737415390855E-03  5.049249435408E-03  5.141669193635E-03
  5.033218439547E-03  4.754266643351E-03  4.342254049699E-03  3.837609067829E-03
  3.280374364395E-03  2.707554391635E-03  2.151173530943E-03  1.637011495267E-03
  1.183962016486E-03  8.039429985134E-04  5.022719991614E-04  2.784107286647E-04
  1.269766531718E-04  3.891898478120E-05  2.760303049008E-06  5.813511679592E-06
  3.529626442340E-05  7.928064149517E-05  1.274337719998E-04  1.715241840603E-04
  2.056877474887E-04  2.264649734575E-04  2.326370464354E-04  2.249003361494E-04
  2.054275519689E-04  1.773677302673E-04  1.443367909332E-04  1.099457153347E-04
  7.740507497345E-05  4.923356320218E-05  2.708546138458E-05  1.169884431126E-05
  2.954052396836E-06  2.168150558112E-08  1.571997723651E-06  6.013889721525E-06
  1.173145564232E-05  1.728989972783E-05  2.158900219876E-05  2.395110451146E-05
  2.414017151492E-05  2.231781148930E-05  1.894997812964E-05  1.468348621710E-05
  1.021383303505E-05  6.164952140607E-06  2.997718109954E-06  9.579767842230E-07
  6.762175650978E-08  0.000000000000E+00  0.000000000000E+00  0.000000000000E+00
  0.000000000000E+00  0.000000000000E+00  0.000000000000E+00  0.000000000000E+00
  0.000000000000E+00  0.000000000000E+00  0.000000000000E+00  0.000000000000E+00
  0.000000000000E+00  0.000000000000E+00  0.000000000000E+00  0.000000000000E+00
  0.000000000000E+00  0.000000000000E+00  0.000000000000E+00  0.000000000000E+00
  0.000000000000E+00  0.000000000000E+00  0.000000000000E+00  0.000000000000E+00
  0.000000000000E+00  0.000000000000E+00  0.000000000000E+00  0.000000000000E+00
  0.000000000000E+00  0.000000000000E+00  0.000000000000E+00  0.000000000000E+00
  0.000000000000E+00  0.000000000000E+00  0.000000000000E+00  0.000000000000E+00
  0.000000000000E+00  0.000000000000E+00  0.000000000000E+00  0.000000000000E+00
  0.000000000000E+00  0.000000000000E+00  0.000000000000E+00  0.000000000000E+00
  0.000000000000E+00  0.000000000000E+00  0.000000000000E+00  0.000000000000E+00
  0.000000000000E+00  0.000000000000E+00  0.000000000000E+00  0.000000000000E+00
  0.000000000000E+00  0.000000000000E+00  0.000000000000E+00  0.000000000000E+00
  0.000000000000E+00  0.000000000000E+00  0.000000000000E+00  0.000000000000E+00
  0.000000000000E+00  0.000000000000E+00  0.000000000000E+00  0.000000000000E+00
  0.000000000000E+00  0.000000000000E+00  0.000000000000E+00  0.000000000000E+00
  0.000000000000E+00  0.000000000000E+00
</data>
</radfunc>
</pseudocore-charge>
<semilocal-potentials set="scalar_relativistic">
<slps n="5" l="s" rc="1.40324955887" eref="-4.81566935679">
<radfunc>
<data npts="290">
 -8.904499134988E+00 -8.908410876585E+00 -8.920098327047E+00 -8.939576858184E+00
 -8.966616910014E+00 -9.002097948773E+00 -9.047197065949E+00 -9.098673622601E+00
 -9.162359598084E+00 -9.230909983063E+00 -9.307799991153E+00 -9.390923114100E+00
 -9.490760345647E+00 -9.594310173835E+00 -9.697026648050E+00 -9.814450256357E+00
 -9.948500413068E+00 -1.007442710715E+01 -1.021468681159E+01 -1.037069406062E+01
 -1.054394844438E+01 -1.069602632326E+01 -1.086098533478E+01 -1.103968070658E+01
 -1.123297914567E+01 -1.144174917025E+01 -1.166684941550E+01 -1.184689487191E+01
 -1.203693480568E+01 -1.223729060058E+01 -1.244826197111E+01 -1.267012178993E+01
 -1.290311051554E+01 -1.314743024830E+01 -1.340323845533E+01 -1.367064141795E+01
 -1.394968746914E+01 -1.424036010220E+01 -1.444056063977E+01 -1.464584564409E+01
 -1.485615340849E+01 -1.507140494807E+01 -1.529150317027E+01 -1.551633208450E+01
 -1.574575605821E+01 -1.597961912707E+01 -1.621774436639E+01 -1.645993333052E+01
 -1.670596556652E+01 -1.695559820748E+01 -1.720856565033E+01 -1.746457932139E+01
 -1.772332753247E+01 -1.798447542838E+01 -1.824766502586E+01 -1.851251534217E+01
 -1.877862261023E+01 -1.904556057582E+01 -1.931288087058E+01 -1.958011345370E+01
 -1.984676711334E+01 -2.011233001834E+01 -2.037627030949E+01 -2.063803671929E+01
 -2.089705920884E+01 -2.115274961052E+01 -2.140450226554E+01 -2.152870804065E+01
 -2.165169464668E+01 -2.177338173037E+01 -2.189368795743E+01 -2.201253102959E+01
 -2.212982770098E+01 -2.224549379402E+01 -2.235944421470E+01 -2.247159296726E+01
 -2.258185316851E+01 -2.269013706155E+01 -2.279635602914E+01 -2.290042060681E+01
 -2.300224049572E+01 -2.310172457546E+01 -2.319878091694E+01 -2.329331679548E+01
 -2.338523870435E+01 -2.347445236894E+01 -2.356086276175E+01 -2.364437411859E+01
 -2.372488995606E+01 -2.380231309085E+01 -2.387654566097E+01 -2.394748914941E+01
 -2.401504441056E+01 -2.407911169976E+01 -2.413959070644E+01 -2.419638059130E+01
 -2.424938002801E+01 -2.429848724988E+01 -2.434360010203E+01 -2.438461609975E+01
 -2.442143249328E+01 -2.445394634006E+01 -2.448205458455E+01 -2.450565414671E+01
 -2.452464201943E+01 -2.453891537585E+01 -2.454837168697E+01 -2.455290885056E+01
 -2.455242533183E+01 -2.454682031673E+01 -2.453599387859E+01 -2.451984715883E+01
 -2.449828256257E+01 -2.447120396988E+01 -2.443851696345E+01 -2.440012907357E+01
 -2.435595004111E+01 -2.430589209941E+01 -2.424987027583E+01 -2.418780271380E+01
 -2.411961101626E+01 -2.404522061108E+01 -2.396456113958E+01 -2.387756686861E+01
 -2.378417712728E+01 -2.368433676894E+01 -2.357799665941E+01 -2.346511419220E+01
 -2.334565383190E+01 -2.321958768677E+01 -2.308689611194E+01 -2.294756834508E+01
 -2.280160317658E+01 -2.264900965726E+01 -2.248980784716E+01 -2.232402961029E+01
 -2.215171946117E+01 -2.197293547105E+01 -2.178775024313E+01 -2.159625196871E+01
 -2.139854557846E+01 -2.119475400627E+01 -2.098501958618E+01 -2.076950560672E+01
 -2.054839805116E+01 -2.032190755644E+01 -2.009027162890E+01 -1.985375715973E+01