<?xml version="1.0" encoding="UTF-8" ?>
<psml version="1.1" energy_unit="hartree" length_unit="bohr"
 uuid="3b9aa3a0-1d66-11e8-5f26-b8a3cb1f4814"
 xmlns="http://esl.cecam.org/PSML/ns/1.1">
<provenance creator="ONCVPSP-3.3.0+psml-3.3.0-73 (scalar-relativistic)"
 date="2018-03-01">
<annotation action="semilocal-pseudopotential-generation"
 action-cont="projectors-generation" />
<input-file name="oncvpsp-input">
<![CDATA[# atsym z nc nv iexc psfile
Re 75 10 4 -116133 upf
# n l f
1 0 2.0
2 0 2.0
2 1 6.0
3 0 2.0
3 1 6.0
3 2 10.0
4 0 2.0
4 1 6.0
4 2 10.0
4 3 14.0
5 0 2.0
5 1 6.0
5 2 5.0
6 0 2.0
# lmax
3
# l rc ep ncon nbas qcut
0 1.6 0.0 4 8 7.4
1 1.6 0.0 4 8 7.8
2 1.6 0.0 4 9 7.4
3 2.0 0.15 4 8 6.0
# lloc lpopt rc5 dvloc0
4 5 1.6 0.0
# l nproj debl
0 2 1.0
1 2 2.0
2 2 1.8
3 2 2.9
# icmod fcfact rcfact
3 4.0 1.44
# epsh1 epsh2 depsh
-12.0 12.0 0.02
# rlmax drl
6.0 0.01
 0
]]>
</input-file>
</provenance>
<pseudo-atom-spec atomic-label="Re" atomic-number="75" z-pseudo="15"
 flavor="Hamann&apos;s oncvpsp" relativity="scalar" spin-dft="no"
 core-corrections="yes">
<annotation pseudo-energy="-79.9513471198" />
<exchange-correlation>
<annotation oncvpsp-xc-code="-116133" oncvpsp-xc-type="libxc-interface" />
<libxc-info number-of-functionals="2">
<functional name="Perdew, Burke &amp; Ernzerhof SOL (GGA)" type="exchange"
 id="116" />
<functional name="Perdew, Burke &amp; Ernzerhof SOL (GGA)" type="correlation"
 id="133" />
</libxc-info>
</exchange-correlation>
<valence-configuration total-valence-charge="15">
<shell n="5" l="s" occupation="2" />
<shell n="5" l="p" occupation="6" />
<shell n="5" l="d" occupation="5" />
<shell n="6" l="s" occupation="2" />
</valence-configuration>
</pseudo-atom-spec>
<grid npts="457">
<annotation type="sampled from oncvpsp log grid"
 recipe="r(i:1..N) = r1*exp(a*(i-1)) + r=0; resampled"
 recipe-cont="r1: scale; a: step" scale="0.666666666667E-05"
 step="0.119285708653E-01" delta="0.500000000000E-02" rmax="44.3244860336" />
<grid-data>
  0.000000000000E+00  5.001418319608E-03  1.010981988336E-02  1.516634194138E-02
  2.019357182683E-02  2.533044859306E-02  3.065710074992E-02  3.579956451334E-02
  4.081909588935E-02  4.599053971972E-02  5.120273020085E-02  5.632967153367E-02
  6.196997469948E-02  6.736664302225E-02  7.323328134463E-02  7.866681531939E-02
  8.450348965482E-02  8.969685306186E-02  9.520938699770E-02  1.010607068480E-01
  1.072716335089E-01  1.125140982946E-01  1.180127672242E-01  1.237801612332E-01
  1.298294131669E-01  1.361742976849E-01  1.428292626275E-01  1.480330651325E-01
  1.534264615625E-01  1.590163595311E-01  1.648099183218E-01  1.708145580576E-01
  1.770379692044E-01  1.834881224200E-01  1.901732787635E-01  1.971020002748E-01
  2.042831609411E-01  2.117259580618E-01  2.168378695933E-01  2.220732031167E-01
  2.274349385328E-01  2.329261276887E-01  2.385498961156E-01  2.443094448074E-01
  2.502080520429E-01  2.562490752514E-01  2.624359529243E-01  2.687722065717E-01
  2.752614427271E-01  2.819073550003E-01  2.887137261795E-01  2.956844303843E-01
  3.028234352715E-01  3.101348042927E-01  3.176226990076E-01  3.252913814524E-01
  3.331452165662E-01  3.411886746750E-01  3.494263340363E-01  3.578628834453E-01
  3.665031249032E-01  3.753519763509E-01  3.844144744679E-01  3.936957775394E-01
  4.032011683924E-01  4.129360574020E-01  4.229059855719E-01  4.279808573988E-01
  4.331166276876E-01  4.383140272198E-01  4.435737955465E-01  4.488966810930E-01
  4.542834412662E-01  4.597348425613E-01  4.652516606721E-01  4.708346806001E-01
  4.764846967673E-01  4.822025131286E-01  4.879889432861E-01  4.938448106055E-01
  4.997709483328E-01  5.057681997128E-01  5.118374181093E-01  5.179794671267E-01
  5.241952207322E-01  5.304855633810E-01  5.368513901415E-01  5.432936068232E-01
  5.498131301051E-01  5.564108876664E-01  5.630878183184E-01  5.698448721382E-01
  5.766830106038E-01  5.836032067311E-01  5.906064452119E-01  5.976937225544E-01
  6.048660472251E-01  6.121244397918E-01  6.194699330693E-01  6.269035722661E-01
  6.344264151333E-01  6.420395321149E-01  6.497440065003E-01  6.575409345783E-01
  6.654314257932E-01  6.734166029027E-01  6.814976021376E-01  6.896755733632E-01
  6.979516802436E-01  7.063271004065E-01  7.148030256114E-01  7.233806619187E-01
  7.320612298617E-01  7.408459646201E-01  7.497361161955E-01  7.587329495899E-01
  7.678377449849E-01  7.770517979248E-01  7.863764194999E-01  7.958129365339E-01
  8.053626917723E-01  8.150270440735E-01  8.248073686024E-01  8.347050570256E-01
  8.447215177099E-01  8.548581759225E-01  8.651164740335E-01  8.754978717219E-01
  8.860038461826E-01  8.966358923368E-01  9.073955230448E-01  9.182842693214E-01
  9.293036805532E-01  9.404553247199E-01  9.517407886165E-01  9.631616780799E-01
  9.747196182169E-01  9.864162536355E-01  9.982532486791E-01  1.010232287663E+00
  1.022355075115E+00  1.034623336017E+00  1.047038816049E+00  1.059603281841E+00
  1.072318521223E+00  1.085186343478E+00  1.098208579600E+00  1.111387082555E+00
  1.124723727546E+00  1.138220412276E+00  1.151879057224E+00  1.165701605910E+00
  1.179690025181E+00  1.193846305483E+00  1.208172461149E+00  1.222670530683E+00
  1.237342577051E+00  1.252190687976E+00  1.267216976231E+00  1.282423579946E+00
  1.297812662906E+00  1.313386414861E+00  1.329147051839E+00  1.345096816461E+00
  1.361237978258E+00  1.377572833998E+00  1.394103708005E+00  1.410832952502E+00
  1.427762947932E+00  1.444896103307E+00  1.462234856546E+00  1.479781674825E+00
  1.497539054923E+00  1.515509523582E+00  1.533695637865E+00  1.552099985519E+00
  1.570725185346E+00  1.589573887570E+00  1.608648774221E+00  1.627952559511E+00
  1.647487990225E+00  1.667257846108E+00  1.687264940261E+00  1.707512119544E+00
  1.728002264979E+00  1.748738292159E+00  1.769723151665E+00  1.790959829485E+00
  1.812451347438E+00  1.834200763608E+00  1.856211172771E+00  1.878485706844E+00
  1.901027535326E+00  1.923839865750E+00  1.946925944139E+00  1.970289055469E+00
  1.993932524135E+00  2.017859714424E+00  2.042074030997E+00  2.066578919369E+00
  2.091377866402E+00  2.116474400799E+00  2.141872093608E+00  2.167574558731E+00
  2.193585453436E+00  2.219908478877E+00  2.246547380624E+00  2.273505949191E+00
  2.300788020582E+00  2.328397476829E+00  2.356338246551E+00  2.384614305509E+00
  2.413229677175E+00  2.442188433301E+00  2.471494694501E+00  2.501152630835E+00
  2.531166462405E+00  2.561540459954E+00  2.592278945473E+00  2.623386292819E+00
  2.654866928333E+00  2.686725331473E+00  2.718966035451E+00  2.751593627876E+00
  2.784612751411E+00  2.818028104427E+00  2.851844441681E+00  2.886066574981E+00
  2.920699373881E+00  2.955747766367E+00  2.991216739564E+00  3.027111340438E+00
  3.063436676524E+00  3.100197916642E+00  3.137400291642E+00  3.175049095141E+00
  3.213149684283E+00  3.251707480494E+00  3.290727970260E+00  3.330216705903E+00
  3.370179306374E+00  3.410621458051E+00  3.451548915547E+00  3.492967502534E+00
  3.534883112564E+00  3.577301709915E+00  3.620229330434E+00  3.663672082399E+00
  3.707636147388E+00  3.752127781157E+00  3.797153314531E+00  3.842719154305E+00
  3.888831784157E+00  3.935497765566E+00  3.982723738753E+00  4.030516423618E+00
  4.078882620702E+00  4.127829212150E+00  4.177363162696E+00  4.227491520648E+00
  4.278221418896E+00  4.329560075923E+00  4.381514796834E+00  4.434092974396E+00
  4.487302090089E+00  4.541149715170E+00  4.595643511752E+00  4.650791233893E+00
  4.706600728699E+00  4.763079937444E+00  4.820236896693E+00  4.878079739454E+00
  4.936616696327E+00  4.995856096683E+00  5.055806369843E+00  5.116476046281E+00
  5.177873758837E+00  5.240008243943E+00  5.302888342870E+00  5.366523002984E+00
  5.430921279020E+00  5.496092334368E+00  5.562045442381E+00  5.628789987689E+00
  5.696335467542E+00  5.764691493152E+00  5.833867791070E+00  5.903874204563E+00
  5.974720695018E+00  6.046417343358E+00  6.118974351478E+00  6.192402043696E+00
  6.266710868220E+00  6.341911398639E+00  6.418014335423E+00  6.495030507448E+00
  6.572970873537E+00  6.651846524019E+00  6.731668682308E+00  6.812448706495E+00
  6.894198090973E+00  6.976928468065E+00  7.060651609682E+00  7.145379428998E+00
  7.231123982146E+00  7.317897469932E+00  7.405712239571E+00  7.494580786446E+00
  7.584515755883E+00  7.675529944954E+00  7.767636304293E+00  7.860847939945E+00
  7.955178115224E+00  8.050640252607E+00  8.147247935638E+00  8.245014910866E+00
  8.343955089796E+00  8.444082550873E+00  8.545411541484E+00  8.647956479982E+00
  8.751731957742E+00  8.856752741234E+00  8.963033774129E+00  9.070590179419E+00
  9.179437261572E+00  9.289590508711E+00  9.401065594815E+00  9.513878381953E+00
  9.628044922536E+00  9.743581461607E+00  9.860504439146E+00  9.978830492416E+00
  1.009857645832E+01  1.021975937582E+01  1.034239648833E+01  1.046650524619E+01
  1.059210330915E+01  1.071920854886E+01  1.084783905145E+01  1.097801312006E+01
  1.110974927750E+01  1.124306626883E+01  1.137798306406E+01  1.151451886083E+01
  1.165269308716E+01  1.179252540420E+01  1.193403570905E+01  1.207724413756E+01
  1.222217106721E+01  1.236883712002E+01  1.251726316546E+01  1.266747032345E+01
  1.281947996733E+01  1.297331372694E+01  1.312899349166E+01  1.328654141356E+01
  1.344597991052E+01  1.360733166945E+01  1.377061964948E+01  1.393586708527E+01
  1.410309749030E+01  1.427233466018E+01  1.444360267610E+01  1.461692590822E+01
  1.479232901912E+01  1.496983696734E+01  1.514947501095E+01  1.533126871108E+01
  1.551524393562E+01  1.570142686284E+01  1.588984398520E+01  1.608052211302E+01
  1.627348837838E+01  1.646877023892E+01  1.666639548179E+01  1.686639222757E+01
  1.706878893430E+01  1.727361440151E+01  1.748089777433E+01  1.769066854762E+01
  1.790295657019E+01  1.811779204903E+01  1.833520555362E+01  1.855522802026E+01
  1.877789075651E+01  1.900322544559E+01  1.923126415093E+01  1.946203932074E+01
  1.969558379259E+01  1.993193079810E+01  2.017111396768E+01  2.041316733529E+01
  2.065812534332E+01  2.090602284744E+01  2.115689512161E+01  2.141077786307E+01
  2.166770719742E+01  2.192771968379E+01  2.219085232000E+01  2.245714254784E+01
  2.272662825841E+01  2.299934779751E+01  2.327533997108E+01  2.355464405073E+01
  2.383729977934E+01  2.412334737670E+01  2.441282754522E+01  2.470578147576E+01
  2.500225085347E+01  2.530227786371E+01  2.560590519807E+01  2.591317606045E+01
  2.622413417318E+01  2.653882378325E+01  2.685728966865E+01  2.717957714468E+01
  2.750573207041E+01  2.783580085526E+01  2.816983046552E+01  2.850786843111E+01
  2.884996285228E+01  2.919616240651E+01  2.954651635539E+01  2.990107455165E+01
  3.025988744627E+01  3.062300609563E+01  3.099048216877E+01  3.136236795480E+01
  3.173871637026E+01  3.211958096670E+01  3.250501593830E+01  3.289507612956E+01
  3.328981704311E+01  3.368929484763E+01  3.409356638580E+01  3.450268918243E+01
  3.491672145262E+01  3.533572211005E+01  3.575975077537E+01  3.618886778468E+01
  3.662313419809E+01  3.706261180847E+01  3.750736315017E+01  3.795745150798E+01
  3.841294092607E+01  3.887389621718E+01  3.934038297179E+01  3.981246756745E+01
  4.029021717826E+01  4.077369978440E+01  4.126298418181E+01  4.175813999199E+01
  4.225923767190E+01  4.276634852396E+01  4.327954470625E+01  4.379889924272E+01
  4.432448603364E+01
</grid-data>
</grid>
<valence-charge total-charge="15" is-unscreening-charge="yes"
 rescaled-to-z-pseudo="no">
<radfunc>
<data npts="457">
  2.055776462278E+00  2.056552730857E+00  2.058948237074E+00  2.062914222578E+00
  2.068429815026E+00  2.075684916755E+00  2.084935871130E+00  2.095535098855E+00
  2.107460551264E+00  2.121377876457E+00  2.137078445540E+00  2.154159924225E+00
  2.174826124070E+00  2.196435789891E+00  2.221961517620E+00  2.247490116683E+00
  2.276931273619E+00  2.304881961458E+00  2.336354362956E+00  2.371788937591E+00
  2.411680204411E+00  2.447172709627E+00  2.486186074392E+00  2.529065029305E+00
  2.576186899505E+00  2.627964375025E+00  2.684848427185E+00  2.731157161090E+00
  2.780838298087E+00  2.834130607399E+00  2.891288430800E+00  2.952582423632E+00
  3.018300268980E+00  3.088747346816E+00  3.164247335445E+00  3.245142717231E+00
  3.331795154158E+00  3.424585691184E+00  3.490053047316E+00  3.558549381784E+00
  3.630201755994E+00  3.705140811242E+00  3.783500612984E+00  3.865418446893E+00
  3.951034559678E+00  4.040491836865E+00  4.133935408872E+00  4.231512175816E+00
  4.333370240481E+00  4.439658237887E+00  4.550524548802E+00  4.666116383437E+00
  4.786578720459E+00  4.912053085315E+00  5.042676150786E+00  5.178578141682E+00
  5.319881024659E+00  5.466696463411E+00  5.619123518980E+00  5.777246074713E+00
  5.941129965603E+00  6.110819792449E+00  6.286335402614E+00  6.467668021281E+00
  6.654776020149E+00  6.847580314687E+00  7.045959386537E+00  7.147188577591E+00
  7.249743934649E+00  7.353595892516E+00  7.458711167466E+00  7.565052560988E+00
  7.672578759152E+00  7.781244128041E+00  7.890998505739E+00  8.001786991435E+00
  8.113549732322E+00  8.226221709002E+00  8.339732520239E+00  8.454006167985E+00
  8.568960843702E+00  8.684508717117E+00  8.800555728649E+00  8.917001386890E+00
  9.033738572596E+00  9.150653350824E+00  9.267624792944E+00  9.384524810387E+00
  9.501218002153E+00  9.617561518193E+00  9.733404940957E+00  9.848590187503E+00
  9.962951434697E+00  1.007631507017E+01  1.018849967183E+01  1.029931601872E+01
  1.040856713639E+01  1.051604837966E+01  1.062154755605E+01  1.072484509298E+01
  1.082571425209E+01  1.092392139374E+01  1.101922629503E+01  1.111138252439E+01
  1.120013787592E+01  1.128523486621E+01  1.136641129658E+01  1.144340088303E+01
  1.151593395640E+01  1.158373823438E+01  1.164653966700E+01  1.170406335664E+01
  1.175603455299E+01  1.180217972299E+01  1.184222769479E+01  1.187591087449E+01
  1.190296653312E+01  1.192313816074E+01  1.193617688355E+01  1.194184293872E+01
  1.193990720076E+01  1.193015275201E+01  1.191237648873E+01  1.188639075295E+01
  1.185202497918E+01  1.180912734380E+01  1.175756640374E+01  1.169723270996E+01
  1.162804038024E+01  1.154992861476E+01  1.146286313705E+01  1.136683754252E+01
  1.126187453586E+01  1.114802703889E+01  1.102537914998E+01  1.089404693673E+01
  1.075417904422E+01  1.060595710181E+01  1.044959591327E+01  1.028534341607E+01
  1.011348039803E+01  9.934319961875E+00  9.748206730608E+00  9.555515789865E+00
  9.356651366328E+00  9.152045244784E+00  8.942154929776E+00  8.727461561314E+00
  8.508467597514E+00  8.285694280346E+00  8.059678903685E+00  7.830971905616E+00
  7.600133809265E+00  7.367732038290E+00  7.134337634543E+00  6.900521906235E+00
  6.666853035251E+00  6.433892672067E+00  6.202192546126E+00  5.972291118563E+00
  5.744710303047E+00  5.519952279247E+00  5.298496422335E+00  5.080796371009E+00
  4.867277256014E+00  4.658333111089E+00  4.454324488819E+00  4.255576304869E+00
  4.062375935708E+00  3.874971596723E+00  3.693571029677E+00  3.518340530211E+00
  3.349404347328E+00  3.186844487083E+00  3.030700951652E+00  2.880972442195E+00
  2.737617549162E+00  2.600556446816E+00  2.469673099536E+00  2.344819391529E+00
  2.225825278642E+00  2.112512124398E+00  2.004694751249E+00  1.902182703014E+00
  1.804781851645E+00  1.712295729632E+00  1.624526772556E+00  1.541277451213E+00
  1.462351296626E+00  1.387553820865E+00  1.316693336987E+00  1.249581681926E+00
  1.186034846558E+00  1.125873517486E+00  1.068923535380E+00  1.015016274859E+00
  9.639889510454E-01  9.156848579914E-01  8.699535441778E-01  8.266509302597E-01
  7.856393741575E-01  7.467876884784E-01  7.099711151130E-01  6.750712616825E-01
  6.419760043478E-01  6.105793611184E-01  5.807813400236E-01  5.524877656516E-01
  5.256100878156E-01  5.000651756623E-01  4.757751003239E-01  4.526669089744E-01
  4.306723929079E-01  4.097278520163E-01  3.897738578120E-01  3.707550169158E-01
  3.526197367072E-01  3.353199946318E-01  3.188111124536E-01  3.030515365594E-01
  2.880026252393E-01  2.736284437066E-01  2.598955674670E-01  2.467728945051E-01
  2.342314666318E-01  2.222443002166E-01  2.107862264281E-01  1.998337410101E-01
  1.893648635426E-01  1.793590060628E-01  1.697968508594E-01  1.606602372033E-01
  1.519320567308E-01  1.435961571603E-01  1.356372539943E-01  1.280408498352E-01
  1.207931609265E-01  1.138810505203E-01  1.072919686642E-01  1.010138980000E-01
  9.503530516622E-02  8.934509740276E-02  8.393258396460E-02  7.878744196035E-02
  7.389968624669E-02  6.925964302388E-02  6.485792679510E-02  6.068542037074E-02
  5.673325761896E-02  5.299280868406E-02  4.945566741575E-02  4.611364076720E-02
  4.295873998136E-02  3.998317330282E-02  3.717934010778E-02  3.453982626176E-02
  3.205740056891E-02  2.972501218413E-02  2.753578886954E-02  2.548303598489E-02
  2.356023610736E-02  2.176104917941E-02  2.007931308563E-02  1.850904456004E-02
  1.704444032577E-02  1.567987836975E-02  1.440991925623E-02  1.322930738571E-02
  1.213297211016E-02  1.111602862154E-02  1.017377853841E-02  9.301710125225E-03
  8.495498089694E-03  7.751002915600E-03  7.064269701037E-03  6.431526484572E-03
  5.849182054174E-03  5.313823245315E-03  4.822211745192E-03  4.371280429267E-03
  3.958129264138E-03  3.580020817037E-03  3.234375416969E-03  2.918766015752E-03
  2.630912799011E-03  2.368677597732E-03  2.130058150336E-03  1.913182263667E-03
  1.716301918877E-03  1.537787365145E-03  1.376121240622E-03  1.229892756139E-03
  1.097791973113E-03  9.786042029197E-04  8.712045508354E-04  7.745526237742E-04
  6.876874165856E-04  6.097223894299E-04  5.398407438303E-04  4.772909019416E-04
  4.213821940056E-04  3.714807530916E-04  3.270056146451E-04  2.874250191670E-04
  2.522529134590E-04  2.210456447979E-04  1.933988421110E-04  1.689444776561E-04
  1.473481023774E-04  1.283062479660E-04  1.115439886237E-04  9.681265558715E-05
  8.388769758538E-05  7.256668057132E-05  6.266742024467E-05  5.402624108058E-05
  4.649635576947E-05  3.994635915949E-05  3.425883096941E-05  2.932904170413E-05
  2.506375635920E-05  2.138013064546E-05  1.820469460247E-05  1.547241860308E-05
  1.312585688296E-05  1.111436386118E-05  9.393378653189E-06  7.923773316442E-06
  6.671260514095E-06  5.605856432819E-06  4.701394948001E-06  3.935089192845E-06
  3.287136856578E-06  2.740365710410E-06  2.279916036903E-06  1.892956817885E-06
  1.568432716724E-06  1.296839071270E-06  1.070022292987E-06  8.810032443350E-07
  7.238213393470E-07  5.933972804848E-07  4.854125074153E-07  3.962035895452E-07
  3.226699433951E-07  2.621933977001E-07  2.125682631478E-07  1.719406896896E-07
  1.387562122793E-07  1.117144956888E-07  8.973039083144E-08  7.190050892827E-08
  5.747460612880E-08  4.583115012486E-08  3.645651219760E-08  2.892729337913E-08
  2.289535237206E-08  1.807515595029E-08  1.423312016821E-08  1.117865323764E-08
  8.756648793292E-09  6.841211847322E-09  5.330429410578E-09  4.142023891267E-09
  3.209750314074E-09  2.480418455701E-09  1.911438467196E-09  1.468803728367E-09
  1.125437812413E-09  8.598437657414E-10  6.550036436438E-10  4.974845824189E-10
  3.767148082261E-10  2.843990405537E-10  2.140478844708E-10  1.606001461998E-10
  1.201206617858E-10  8.955929640728E-11  6.655933774331E-11  4.930564552590E-11
  3.640469590227E-11  2.679012974050E-11  1.964862698075E-11  1.436192615690E-11
  1.046162483878E-11  7.594063233157E-12  5.493135188493E-12  3.959310031546E-12
  2.843503237310E-12  2.034719148059E-12  1.450617532497E-12  1.030338277080E-12
  7.290636703910E-13  5.139127568561E-13  3.608531924088E-13  2.523865910746E-13
  1.300515020465E-13  8.995529535497E-14  6.196411034464E-14  4.250444508145E-14
  2.903269733319E-14  1.974591731881E-14  1.337155296441E-14  9.015263637230E-15
  6.051237871085E-15  4.043487571884E-15  2.689618560793E-15  1.780837448565E-15
  1.173634576521E-15  7.698254638106E-16  5.025483418581E-16  3.264861390715E-16
  2.110706352143E-16  1.357818056078E-16  8.691210210447E-17  5.535001551677E-17
  3.506934446251E-17  2.210462882400E-17  1.385981488707E-17  8.644161575904E-18
  5.362309207194E-18  3.308387059952E-18  2.029961824851E-18  1.238619163896E-18
  7.515138865254E-19  4.533734532744E-19  2.719350842066E-19  1.621564891914E-19
  9.612422483249E-20  5.664087042619E-20  3.317372862795E-20  1.931053604333E-20
  1.117115387076E-20  6.422039930811E-21  3.668482405180E-21  2.082117132308E-21
  1.174074221300E-21  6.576935846726E-22  3.659779033515E-22  2.022806865211E-22
  1.110418945169E-22  6.053633481954E-23  3.277225831245E-23  0.000000000000E+00
  0.000000000000E+00  0.000000000000E+00  0.000000000000E+00  0.000000000000E+00
  0.000000000000E+00  0.000000000000E+00  0.000000000000E+00  0.000000000000E+00
  0.000000000000E+00  0.000000000000E+00  0.000000000000E+00  0.000000000000E+00
  0.000000000000E+00
</data>
</radfunc>
</valence-charge>
<pseudocore-charge matching-radius="0.907395523045"
 number-of-continuous-derivatives="4">
<annotation model-charge-form="Teter function with specified parameters" />
<radfunc>
<data npts="290">
  4.796570216112E+01  4.796348189981E+01  4.795663073605E+01  4.794528937548E+01
  4.792951954309E+01  4.790878129839E+01  4.788234639062E+01  4.785207022017E+01
  4.781802034494E+01  4.777830266851E+01  4.773352093331E+01  4.768483046636E+01
  4.762596325744E+01  4.756445678346E+01  4.749186713528E+01  4.741933684785E+01
  4.733577343738E+01  4.725652185544E+01  4.716737860718E+01  4.706713029229E+01
  4.695442036938E+01  4.685426771981E+01  4.674431784215E+01  4.662363775206E+01
  4.649121095182E+01  4.634593108897E+01  4.618659538474E+01  4.605708792099E+01
  4.591835046096E+01  4.576975532141E+01  4.561063676711E+01  4.544028943423E+01
  4.525796681357E+01  4.506287982177E+01  4.485419549384E+01  4.463103583544E+01
  4.439247688024E+01  4.413754800413E+01  4.395800041357E+01  4.377041283420E+01
  4.357446287480E+01  4.336981899687E+01  4.315614066204E+01  4.293307853636E+01
  4.270027475785E+01  4.245736327423E+01  4.220397025791E+01  4.193971460641E+01
  4.166420853614E+01  4.137705827873E+01  4.107786488902E+01  4.076622517457E+01
  4.044173275712E+01  4.010397927655E+01  3.975255574857E+01  3.938705408756E+01
  3.900706880632E+01  3.861219890448E+01  3.820204995761E+01  3.777623641871E+01
  3.733438414374E+01  3.687613315205E+01  3.640114063223E+01  3.590908420251E+01
  3.539966543386E+01  3.487261364207E+01  3.432768995295E+01  3.404846125921E+01
  3.376469164243E+01  3.347636216748E+01  3.318345675004E+01  3.288596231532E+01
  3.258386896073E+01  3.227717012246E+01  3.196586274562E+01  3.164994745804E+01
  3.132942874734E+01  3.100431514109E+01  3.067461938990E+01  3.034035865307E+01
  3.000155468649E+01  2.965823403249E+01  2.931042821127E+01  2.895817391343E+01
  2.860151319318E+01  2.824049366174E+01  2.787516868043E+01  2.750559755270E+01
  2.713184571478E+01  2.675398492391E+01  2.637209344370E+01  2.598625622578E+01
  2.559656508686E+01  2.520311888035E+01  2.480602366169E+01  2.440539284627E+01
  2.400134735912E+01  2.359401577505E+01  2.318353444832E+01  2.277004763048E+01
  2.235370757531E+01  2.193467462947E+01  2.151311730757E+01  2.108921235027E+01
  2.066314476412E+01  2.023510784147E+01  1.980530315922E+01  1.937394055475E+01
  1.894123807759E+01  1.850742191530E+01  1.807272629195E+01  1.763739333777E+01
  1.720167292843E+01  1.676582249238E+01  1.633010678497E+01  1.589479762768E+01
  1.546017361143E+01  1.502651976244E+01  1.459412716964E+01  1.416329257242E+01
  1.373431790793E+01  1.330750981707E+01  1.288317910844E+01  1.246164018006E+01
  1.204321039829E+01  1.162820943425E+01  1.121695855779E+01  1.080977988951E+01
  1.040699561179E+01  1.000892713971E+01  9.615894253528E+00  9.228214194391E+00
  8.846200725456E+00  8.470163161070E+00  8.100405366931E+00  7.737224734665E+00
  7.380911134654E+00  7.031745851410E+00  6.690000506241E+00  6.355935972401E+00
  6.029801288364E+00  5.711832575319E+00  5.402251965387E+00  5.101266547485E+00
  4.809067338151E+00  4.525828284963E+00  4.251705310527E+00  3.986835405252E+00
  3.731335777336E+00  3.485303068522E+00  3.248812644276E+00  3.021917966978E+00
  2.804650060664E+00  2.597017075619E+00  2.399003960843E+00  2.210572251967E+00
  2.031659981697E+00  1.862181719178E+00  1.702028743903E+00  1.551069358877E+00
  1.409149346728E+00  1.276092571258E+00  1.151701725672E+00  1.035759227323E+00
  9.280282572772E-01  8.282539414342E-01  7.361646682439E-01  6.514735363178E-01
  5.738799234618E-01  5.030711668588E-01  4.387243423476E-01  3.805081290038E-01
  3.280847435650E-01  2.811119276838E-01  2.392449695849E-01  2.021387404699E-01
  1.694497250083E-01  1.408380244975E-01  1.159693108131E-01  9.451670913029E-02
  7.616258760853E-02  6.060023281676E-02  4.753539065257E-02  3.668765388676E-02
  2.779167924453E-02  2.059821910917E-02  1.487495548380E-02  1.040712674411E-02
  6.997940916466E-03  4.468772671852E-03  2.659144870978E-03  1.426499256956E-03
  6.457646852603E-04  2.087350150735E-04  2.327236487050E-05  1.235475798678E-05
  1.129901509078E-04  2.750213509733E-04  4.598483009619E-04  6.390955560556E-04
  7.932534389331E-04  9.103212844194E-04  9.844803510708E-04  1.014822382745E-03
  1.004157474751E-03  9.579218908036E-04  8.832028710756E-04  7.878933775870E-04
  6.799852749902E-04  5.670047972001E-04  4.555894732843E-04  3.512011583146E-04
  2.579656162309E-04  1.786254043489E-04  1.145897686315E-04  6.606300549880E-05
  3.223137626823E-05  1.148822994529E-05  1.677508354618E-06  3.372344989643E-07
  4.926830824039E-06  1.302504208445E-05  2.248867015009E-05  3.156605601481E-05
  3.896303840188E-05  4.386274420693E-05  4.590379935619E-05  4.512419158374E-05
  4.187991270615E-05  3.674855514972E-05  3.042819753143E-05  2.364121736993E-05
  1.705121375699E-05  1.119916857400E-05  6.462529939124E-06  3.038305608096E-06
  9.487563999648E-07  6.611605104463E-08  1.511329044164E-07  8.992716346461E-07
  1.988197877367E-06  3.120682045285E-06  4.058206950708E-06  4.642182500274E-06
  4.801542946285E-06  4.547384935325E-06  3.956958688337E-06  3.150545513293E-06
  2.265399916141E-06  1.430943120134E-06  7.487970276778E-07  2.801608862773E-07
  4.164469332038E-08  0.000000000000E+00  0.000000000000E+00  0.000000000000E+00
  0.000000000000E+00  0.000000000000E+00  0.000000000000E+00  0.000000000000E+00
  0.000000000000E+00  0.000000000000E+00  0.000000000000E+00  0.000000000000E+00
  0.000000000000E+00  0.000000000000E+00  0.000000000000E+00  0.000000000000E+00
  0.000000000000E+00  0.000000000000E+00  0.000000000000E+00  0.000000000000E+00
  0.000000000000E+00  0.000000000000E+00  0.000000000000E+00  0.000000000000E+00
  0.000000000000E+00  0.000000000000E+00  0.000000000000E+00  0.000000000000E+00
  0.000000000000E+00  0.000000000000E+00  0.000000000000E+00  0.000000000000E+00
  0.000000000000E+00  0.000000000000E+00  0.000000000000E+00  0.000000000000E+00
  0.000000000000E+00  0.000000000000E+00
</data>
</radfunc>
</pseudocore-charge>
<semilocal-potentials set="scalar_relativistic">
<slps n="5" l="s" rc="1.60864877422" eref="-3.13443752533">
<radfunc>
<data npts="290">
 -7.071877924927E+00 -7.073167532192E+00 -7.077145797325E+00 -7.083727689911E+00
 -7.092871976852E+00 -7.104883727954E+00 -7.120172805806E+00 -7.137653008094E+00
 -7.157273135529E+00 -7.180107321326E+00 -7.205786178672E+00 -7.233626437663E+00
 -7.267174790332E+00 -7.302098327205E+00 -7.343146297959E+00 -7.383979386246E+00
 -7.430800592886E+00 -7.474986343081E+00 -7.524433428963E+00 -7.579721906110E+00
 -7.641483725954E+00 -7.696012694562E+00 -7.755497859279E+00 -7.820336831799E+00
 -7.890948541335E+00 -7.967772153886E+00 -8.051265400380E+00 -8.118546853179E+00
 -8.190051203590E+00 -8.265986554219E+00 -8.346563061374E+00 -8.431991598699E+00
 -8.522482200791E+00 -8.618242270043E+00 -8.719474531091E+00 -8.826374718930E+00
 -8.939128989119E+00 -9.057911041594E+00 -9.140526652644E+00 -9.225934203687E+00
 -9.314171721199E+00 -9.405272469500E+00 -9.499264415762E+00 -9.596169672615E+00
 -9.696003919852E+00 -9.798775807031E+00 -9.904486339115E+00 -1.001312824761E+01
 -1.012468534998E+01 -1.023913190056E+01 -1.035643193620E+01 -1.047653862068E+01
 -1.059939359164E+01 -1.072492631448E+01 -1.085305344767E+01 -1.098367822411E+01
 -1.111668985331E+01 -1.125196294940E+01 -1.138935698960E+01 -1.152871580829E+01
 -1.166986713123E+01 -1.181262215468E+01 -1.195677517378E+01 -1.210210326452E+01
 -1.224836602308E+01 -1.239530536634E+01 -1.254264539700E+01 -1.261637456312E+01
 -1.269009233621E+01 -1.276375920047E+01 -1.283733452685E+01 -1.291077657729E+01
 -1.298404250996E+01 -1.305708838594E+01 -1.312986917697E+01 -1.320233877452E+01
 -1.327445000020E+01 -1.334615461741E+01 -1.341740334431E+01 -1.348814586821E+01
 -1.355833086127E+01 -1.362790599765E+01 -1.369681797209E+01 -1.376501251994E+01
 -1.383243443870E+01 -1.389902761116E+01 -1.396473503000E+01 -1.402949882417E+01
 -1.409326028678E+01 -1.415595990485E+01 -1.421753739078E+01 -1.427793171562E+01
 -1.433708114425E+01 -1.439492327253E+01 -1.445139506644E+01 -1.450643290325E+01
 -1.455997261487E+01 -1.461194953337E+01 -1.466229853874E+01 -1.471095410895E+01
 -1.475785037244E+01 -1.480292116284E+01 -1.484610007632E+01 -1.488732053130E+01
 -1.492651583058E+01 -1.496361922608E+01 -1.499856398590E+01 -1.503128346385E+01
 -1.506171117128E+01 -1.508978085114E+01 -1.511542655416E+01 -1.513858271694E+01
 -1.515918424174E+01 -1.517716657773E+01 -1.519246580342E+01 -1.520501870983E+01
 -1.521476288405E+01 -1.522163679268E+01 -1.522557986462E+01 -1.522653257264E+01
 -1.522443651301E+01 -1.521923448253E+01 -1.521087055218E+01 -1.519929013659E+01
 -1.518444005845E+01 -1.516626860715E+01 -1.514472559063E+01 -1.511976237984E+01
 -1.509133194498E+01 -1.505938888289E+01 -1.502388943533E+01 -1.498479149771E+01
 -1.494205461853E+01 -1.489563998988E+01 -1.484551042989E+01 -1.479163035864E+01
 -1.473396576955E+01 -1.467248419924E+01 -1.460715469944E+01 -1.453794781602E+01
 -1.446483558100E+01 -1.438779152490E+01 -1.430679071839E+01 -1.422180985376E+01
 -1.413282737858E+01 -1.403982369617E+01 -1.394278144922E+01 -1.384168590590E+01
 -1.373652546968E+01 -1.362729233701E+01 -1.351398332967E+01 -1.339660093105E+01