<?xml version="1.0" encoding="UTF-8" ?>
<psml version="1.1" energy_unit="hartree" length_unit="bohr"
 uuid="4602e1a0-1d60-11e8-7b97-349dff7c910b"
 xmlns="http://esl.cecam.org/PSML/ns/1.1">
<provenance creator="ONCVPSP-3.3.0+psml-3.3.0-73 (scalar-relativistic)"
 date="2018-03-01">
<annotation action="semilocal-pseudopotential-generation"
 action-cont="projectors-generation" />
<input-file name="oncvpsp-input">
<![CDATA[# atsym z nc nv iexc psfile
Ag 47 6 4 -116133 upf
# n l f
1 0 2.0
2 0 2.0
2 1 6.0
3 0 2.0
3 1 6.0
3 2 10.0
4 0 2.0
4 1 6.0
4 2 10.0
5 0 1.0
# lmax
2
# l rc ep ncon nbas qcut
0 1.4 0.0 4 8 9.2
1 1.45 0.0 4 8 9.2
2 1.6 0.0 4 8 9.2
# lloc lpopt rc5 dvloc0
4 5 1.4 0.0
# l nproj debl
0 2 1.0
1 2 1.0
2 2 1.0
# icmod fcfact
3 7.0 1.24
# epsh1 epsh2 depsh
-12.0 12.0 0.02
# rlmax drl
6.0 0.01
 0
]]>
</input-file>
</provenance>
<pseudo-atom-spec atomic-label="Ag" atomic-number="47" z-pseudo="19"
 flavor="Hamann&apos;s oncvpsp" relativity="scalar" spin-dft="no"
 core-corrections="yes">
<annotation pseudo-energy="-147.276017808" />
<exchange-correlation>
<annotation oncvpsp-xc-code="-116133" oncvpsp-xc-type="libxc-interface" />
<libxc-info number-of-functionals="2">
<functional name="Perdew, Burke &amp; Ernzerhof SOL (GGA)" type="exchange"
 id="116" />
<functional name="Perdew, Burke &amp; Ernzerhof SOL (GGA)" type="correlation"
 id="133" />
</libxc-info>
</exchange-correlation>
<valence-configuration total-valence-charge="19">
<shell n="4" l="s" occupation="2" />
<shell n="4" l="p" occupation="6" />
<shell n="4" l="d" occupation="10" />
<shell n="5" l="s" occupation="1" />
</valence-configuration>
</pseudo-atom-spec>
<grid npts="458">
<annotation type="sampled from oncvpsp log grid"
 recipe="r(i:1..N) = r1*exp(a*(i-1)) + r=0; resampled"
 recipe-cont="r1: scale; a: step" scale="0.106382978723E-04"
 step="0.119285708653E-01" delta="0.500000000000E-02" rmax="44.4188311520" />
<grid-data>
  0.000000000000E+00  5.012063889261E-03  1.013133873758E-02  1.519862365413E-02
  2.023655404941E-02  2.538436470997E-02  3.072235470001E-02  3.587576424974E-02
  4.090597974922E-02  4.608843105027E-02  5.131171573174E-02  5.644956981122E-02
  6.210187841956E-02  6.751003360562E-02  7.251893194389E-02  7.789946485591E-02
  8.367920572152E-02  8.882191079441E-02  9.428067306739E-02  1.000749165892E-01
  1.062252591596E-01  1.114165866549E-01  1.168616191670E-01  1.225727554967E-01
  1.285630003858E-01  1.348459941300E-01  1.414360436389E-01  1.465890859822E-01
  1.519298728687E-01  1.574652445318E-01  1.632022904206E-01  1.691483582787E-01
  1.753110635559E-01  1.816982991609E-01  1.883182455706E-01  1.951793813071E-01
  2.022904937969E-01  2.096606906249E-01  2.147227383393E-01  2.199070041338E-01
  2.252164388416E-01  2.306540645410E-01  2.362229762752E-01  2.419263438144E-01
  2.477674134595E-01  2.537495098901E-01  2.598760380568E-01  2.661504851197E-01
  2.725764224324E-01  2.791575075756E-01  2.858974864385E-01  2.928001953511E-01
  2.998695632677E-01  3.071096140032E-01  3.145244685237E-01  3.221183472917E-01
  3.298955726687E-01  3.378605713752E-01  3.460178770105E-01  3.543721326331E-01
  3.629280934034E-01  3.716906292905E-01  3.806647278441E-01  3.898554970332E-01
  3.992681681535E-01  4.089080988054E-01  4.187807759430E-01  4.238061452543E-01
  4.288918189973E-01  4.340385208253E-01  4.392469830752E-01  4.445179468721E-01
  4.498521622346E-01  4.552503881814E-01  4.607133928396E-01  4.662419535537E-01
  4.718368569963E-01  4.774988992803E-01  4.832288860716E-01  4.890276327045E-01
  4.948959642969E-01  5.008347158685E-01  5.068447324589E-01  5.129268692484E-01
  5.190819916794E-01  5.253109755796E-01  5.316147072865E-01  5.379940837739E-01
  5.444500127792E-01  5.509834129326E-01  5.575952138878E-01  5.642863564544E-01
  5.710577927319E-01  5.779104862447E-01  5.848454120796E-01  5.918635570246E-01
  5.989659197089E-01  6.061535107454E-01  6.134273528743E-01  6.207884811088E-01
  6.282379428821E-01  6.357767981967E-01  6.434061197750E-01  6.511269932123E-01
  6.589405171309E-01  6.668478033365E-01  6.748499769765E-01  6.829481767002E-01
  6.911435548206E-01  6.994372774785E-01  7.078305248082E-01  7.163244911059E-01
  7.249203849992E-01  7.336194296192E-01  7.424228627746E-01  7.513319371279E-01
  7.603479203734E-01  7.694720954179E-01  7.787057605629E-01  7.880502296897E-01
  7.975068324460E-01  8.070769144353E-01  8.167618374085E-01  8.265629794574E-01
  8.364817352109E-01  8.465195160335E-01  8.566777502259E-01  8.669578832286E-01
  8.773613778273E-01  8.878897143612E-01  8.985443909336E-01  9.093269236248E-01
  9.202388467083E-01  9.312817128688E-01  9.424570934232E-01  9.537665785443E-01
  9.652117774868E-01  9.767943188166E-01  9.885158506424E-01  1.000378040850E+00
  1.012382577340E+00  1.024531168268E+00  1.036825542288E+00  1.049267448795E+00
  1.061858658181E+00  1.074600962079E+00  1.087496173624E+00  1.100546127707E+00
  1.113752681240E+00  1.127117713415E+00  1.140643125976E+00  1.154330843487E+00
  1.168182813609E+00  1.182201007372E+00  1.196387419461E+00  1.210744068494E+00
  1.225272997316E+00  1.239976273284E+00  1.254855988564E+00  1.269914260426E+00
  1.285153231551E+00  1.300575070330E+00  1.316181971174E+00  1.331976154828E+00
  1.347959868686E+00  1.364135387110E+00  1.380505011756E+00  1.397071071897E+00
  1.413835924759E+00  1.430801955857E+00  1.447971579327E+00  1.465347238279E+00
  1.482931405138E+00  1.500726582000E+00  1.518735300984E+00  1.536960124596E+00
  1.555403646091E+00  1.574068489844E+00  1.592957311722E+00  1.612072799463E+00
  1.631417673056E+00  1.650994685133E+00  1.670806621354E+00  1.690856300811E+00
  1.711146576420E+00  1.731680335337E+00  1.752460499362E+00  1.773490025354E+00
  1.794771905658E+00  1.816309168526E+00  1.838104878548E+00  1.860162137091E+00
  1.882484082736E+00  1.905073891729E+00  1.927934778430E+00  1.951069995771E+00
  1.974482835720E+00  1.998176629749E+00  2.022154749306E+00  2.046420606297E+00
  2.070977653573E+00  2.095829385416E+00  2.120979338041E+00  2.146431090097E+00
  2.172188263178E+00  2.198254522336E+00  2.224633576605E+00  2.251329179524E+00
  2.278345129678E+00  2.305685271234E+00  2.333353494489E+00  2.361353736423E+00
  2.389689981260E+00  2.418366261035E+00  2.447386656167E+00  2.476755296041E+00
  2.506476359594E+00  2.536554075909E+00  2.566992724820E+00  2.597796637518E+00
  2.628970197168E+00  2.660517839534E+00  2.692444053609E+00  2.724753382252E+00
  2.757450422839E+00  2.790539827913E+00  2.824026305848E+00  2.857914621518E+00
  2.892209596976E+00  2.926916112140E+00  2.962039105486E+00  2.997583574751E+00
  3.033554577648E+00  3.069957232580E+00  3.106796719371E+00  3.144078280004E+00
  3.181807219364E+00  3.219988905996E+00  3.258628772868E+00  3.297732318142E+00
  3.337305105960E+00  3.377352767232E+00  3.417881000438E+00  3.458895572444E+00
  3.500402319313E+00  3.542407147145E+00  3.584916032911E+00  3.627935025305E+00
  3.671470245609E+00  3.715527888556E+00  3.760114223219E+00  3.805235593898E+00
  3.850898421025E+00  3.897109202077E+00  3.943874512502E+00  3.991201006652E+00
  4.039095418732E+00  4.087564563756E+00  4.136615338521E+00  4.186254722584E+00
  4.236489779255E+00  4.287327656606E+00  4.338775588485E+00  4.390840895547E+00
  4.443530986293E+00  4.496853358129E+00  4.550815598426E+00  4.605425385608E+00
  4.660690490235E+00  4.716618776118E+00  4.773218201431E+00  4.830496819848E+00
  4.888462781686E+00  4.947124335067E+00  5.006489827088E+00  5.066567705013E+00
  5.127366517473E+00  5.188894915682E+00  5.251161654671E+00  5.314175594527E+00
  5.377945701661E+00  5.442481050081E+00  5.507790822682E+00  5.573884312554E+00
  5.640770924305E+00  5.708460175396E+00  5.776961697501E+00  5.846285237871E+00
  5.916440660726E+00  5.987437948654E+00  6.059287204038E+00  6.131998650487E+00
  6.205582634292E+00  6.280049625904E+00  6.355410221415E+00  6.431675144072E+00
  6.508855245801E+00  6.586961508750E+00  6.666005046855E+00  6.745997107417E+00
  6.826949072706E+00  6.908872461579E+00  6.991778931118E+00  7.075680278291E+00
  7.160588441631E+00  7.246515502930E+00  7.333473688966E+00  7.421475373233E+00
  7.510533077712E+00  7.600659474644E+00  7.691867388340E+00  7.784169797000E+00
  7.877579834564E+00  7.972110792579E+00  8.067776122090E+00  8.164589435555E+00
  8.262564508782E+00  8.361715282887E+00  8.462055866282E+00  8.563600536677E+00
  8.666363743117E+00  8.770360108035E+00  8.875604429331E+00  8.982111682483E+00
  9.089897022673E+00  9.198975786945E+00  9.309363496388E+00  9.421075858345E+00
  9.534128768645E+00  9.648538313869E+00  9.764320773635E+00  9.881492622919E+00
  1.000007053439E+01  1.012007138081E+01  1.024151223738E+01  1.036441038422E+01
  1.048878330884E+01  1.061464870854E+01  1.074202449304E+01  1.087092878696E+01
  1.100137993240E+01  1.113339649159E+01  1.126699724949E+01  1.140220121649E+01
  1.153902763108E+01  1.167749596266E+01  1.181762591421E+01  1.195943742518E+01
  1.210295067428E+01  1.224818608237E+01  1.239516431536E+01  1.254390628715E+01
  1.269443316259E+01  1.284676636054E+01  1.300092755687E+01  1.315693868755E+01
  1.331482195180E+01  1.347459981522E+01  1.363629501301E+01  1.379993055316E+01
  1.396552971980E+01  1.413311607644E+01  1.430271346936E+01  1.447434603099E+01
  1.464803818336E+01  1.482381464156E+01  1.500170041726E+01  1.518172082227E+01
  1.536390147213E+01  1.554826828980E+01  1.573484750928E+01  1.592366567939E+01
  1.611474966754E+01  1.630812666355E+01  1.650382418351E+01  1.670187007371E+01
  1.690229251460E+01  1.710512002477E+01  1.731038146507E+01  1.751810604265E+01
  1.772832331516E+01  1.794106319495E+01  1.815635595329E+01  1.837423222473E+01
  1.859472301142E+01  1.881785968756E+01  1.904367400381E+01  1.927219809186E+01
  1.950346446896E+01  1.973750604259E+01  1.997435611510E+01  2.021404838848E+01
  2.045661696914E+01  2.070209637277E+01  2.095052152924E+01  2.120192778759E+01
  2.145635092104E+01  2.171382713210E+01  2.197439305768E+01  2.223808577437E+01
  2.250494280367E+01  2.277500211731E+01  2.304830214272E+01  2.332488176843E+01
  2.360478034965E+01  2.388803771385E+01  2.417469416641E+01  2.446479049641E+01
  2.475836798237E+01  2.505546839816E+01  2.535613401893E+01  2.566040762716E+01
  2.596833251869E+01  2.627995250891E+01  2.659531193902E+01  2.691445568229E+01
  2.723742915047E+01  2.756427830028E+01  2.789504963988E+01  2.822979023556E+01
  2.856854771839E+01  2.891137029101E+01  2.925830673450E+01  2.960940641532E+01
  2.996471929230E+01  3.032429592381E+01  3.068818747489E+01  3.105644572459E+01
  3.142912307329E+01  3.180627255017E+01  3.218794782077E+01  3.257420319462E+01
  3.296509363295E+01  3.336067475655E+01  3.376100285363E+01  3.416613488787E+01
  3.457612850652E+01  3.499104204860E+01  3.541093455319E+01  3.583586576782E+01
  3.626589615704E+01  3.670108691092E+01  3.714149995385E+01  3.758719795330E+01
  3.803824432874E+01  3.849470326068E+01  3.895663969981E+01  3.942411937621E+01
  3.989720880872E+01  4.037597531443E+01  4.086048701820E+01  4.135081286242E+01
  4.184702261677E+01  4.234918688817E+01  4.285737713083E+01  4.337166565640E+01
  4.389212564428E+01  4.441883115201E+01
</grid-data>
</grid>
<valence-charge total-charge="19" is-unscreening-charge="yes"
 rescaled-to-z-pseudo="no">
<radfunc>
<data npts="458">
  2.201433281694E+00  2.203956870688E+00  2.211744952092E+00  2.224640374003E+00
  2.242577487535E+00  2.266177141024E+00  2.296278022658E+00  2.330778296821E+00
  2.369611034085E+00  2.414950576364E+00  2.466125931178E+00  2.521833628069E+00
  2.589275045826E+00  2.659844617641E+00  2.730477422323E+00  2.812003063416E+00
  2.906102502661E+00  2.995514386805E+00  3.096278273041E+00  3.209833688121E+00
  3.337800725905E+00  3.451767839525E+00  3.577155991890E+00  3.715101549959E+00
  3.866850249176E+00  4.033766327207E+00  4.217341927477E+00  4.366931278950E+00
  4.527546424814E+00  4.699977120618E+00  4.885063629106E+00  5.083698440994E+00
  5.296827659175E+00  5.525451924024E+00  5.770626730345E+00  6.033461954707E+00
  6.315120374943E+00  6.616814921072E+00  6.829695695635E+00  7.052423098501E+00
  7.285386969255E+00  7.528982622331E+00  7.783609273087E+00  8.049668164885E+00
  8.327560360886E+00  8.617684161381E+00  8.920432104712E+00  9.236187507157E+00
  9.565320494754E+00  9.908183477962E+00  1.026510601854E+01  1.063638903719E+01
  1.102229831049E+01  1.142305720707E+01  1.183883861528E+01  1.226975601948E+01
  1.271585368811E+01  1.317709594631E+01  1.365335551737E+01  1.414440093322E+01
  1.464988303322E+01  1.516932059461E+01  1.570208516655E+01  1.624738521377E+01
  1.680424971593E+01  1.737151141446E+01  1.794778995071E+01  1.823881678973E+01
  1.853147519768E+01  1.882552536317E+01  1.912071115117E+01  1.941675966155E+01
  1.971338081521E+01  2.001026697260E+01  2.030709258959E+01  2.060351391598E+01
  2.089916874223E+01  2.119367620024E+01  2.148663662432E+01  2.177763147867E+01
  2.206622335804E+01  2.235195606812E+01  2.263435479277E+01  2.291292635510E+01
  2.318715957931E+01  2.345652576064E+01  2.372047925033E+01  2.397845816257E+01
  2.422988521025E+01  2.447416867593E+01  2.471070352417E+01  2.493887266090E+01
  2.515804834490E+01  2.536759375591E+01  2.556686472277E+01  2.575521161465E+01
  2.593198139673E+01  2.609651985100E+01  2.624817396137E+01  2.638629446077E+01
  2.651023853652E+01  2.661937268835E+01  2.671307573183E+01  2.679074193785E+01
  2.685178429687E+01  2.689563789441E+01  2.692176338219E+01  2.692965052688E+01
  2.691882181625E+01  2.688883610022E+01  2.683929224185E+01  2.676983275142E+01
  2.668014737415E+01  2.656997660079E+01  2.643911506770E+01  2.628741481224E+01
  2.611478834735E+01  2.592121151861E+01  2.570672610628E+01  2.547144213454E+01
  2.521553985045E+01  2.493927133600E+01  2.464296171756E+01  2.432700993924E+01
  2.399188906872E+01  2.363814610749E+01  2.326640128074E+01  2.287734678671E+01
  2.247174498974E+01  2.205042604723E+01  2.161428496605E+01  2.116427809081E+01
  2.070141903299E+01  2.022677405704E+01  1.974145694702E+01  1.924662338462E+01
  1.874346487702E+01  1.823320228012E+01  1.771707896977E+01  1.719635372009E+01
  1.667229335418E+01  1.614616523717E+01  1.561922968674E+01  1.509273237894E+01
  1.456789682973E+01  1.404591703384E+01  1.352795034213E+01  1.301511065727E+01
  1.250846202487E+01  1.200901269279E+01  1.151770970613E+01  1.103543409882E+01
  1.056299673485E+01  1.010113484371E+01  9.650509284990E+00  9.211702567120E+00
  8.785217634664E+00  8.371477427814E+00  7.970825207048E+00  7.583525625294E+00
  7.209766519783E+00  6.849661386065E+00  6.503252487761E+00  6.170514547410E+00
  5.851358956551E+00  5.545638436882E+00  5.253152079073E+00  4.973650681573E+00
  4.706842308601E+00  4.452398205483E+00  4.209959594919E+00  3.979144786063E+00
  3.759554803352E+00  3.550781319461E+00  3.352415641672E+00  3.164051942649E+00
  2.985290015087E+00  2.815737525758E+00  2.655011725533E+00  2.502740589807E+00
  2.358562995100E+00  2.222126944947E+00  2.093087031779E+00  1.971105358638E+00
  1.855852215870E+00  1.747006695205E+00  1.644257195941E+00  1.547301831041E+00
  1.455848740896E+00  1.369616322345E+00  1.288333380384E+00  1.211739209746E+00
  1.139583613290E+00  1.071626863847E+00  1.007639615846E+00  9.474027727184E-01
  8.907073157487E-01  8.373540996609E-01  7.871536199078E-01  7.399257562490E-01
  6.954994968685E-01  6.537126469266E-01  6.144115251105E-01  5.774506514167E-01
  5.426924290835E-01  5.100068232927E-01  4.792710389713E-01  4.503691997511E-01
  4.231920298925E-01  3.976365407355E-01  3.736057230229E-01  3.510082462296E-01
  3.297581658480E-01  3.097746394005E-01  2.909816517953E-01  2.733077504976E-01
  2.566857908589E-01  2.410526918334E-01  2.263492022055E-01  2.125196773672E-01
  1.995118666008E-01  1.872767107574E-01  1.757681501636E-01  1.649429425374E-01
  1.547604906581E-01  1.451826794972E-01  1.361737224946E-01  1.277000166422E-01
  1.197300060235E-01  1.122340534486E-01  1.051843198163E-01  9.855465083582E-02
  9.232047074079E-02  8.645868263301E-02  8.094757509955E-02  7.576673475601E-02
  7.089696437832E-02  6.632020629733E-02  6.201947074241E-02  5.797876883378E-02
  5.418304993663E-02  5.061814310398E-02  4.727070234950E-02  4.412815550497E-02
  4.117865643138E-02  3.841104036581E-02  3.581478219932E-02  3.337995749395E-02
  3.109720605876E-02  2.895769791653E-02  2.695310150341E-02  2.507555395429E-02
  2.331763333506E-02  2.167233269815E-02  2.013303582940E-02  1.869349458523E-02
  1.734780770780E-02  1.609040101993E-02  1.491600890633E-02  1.381965699295E-02
  1.279664594171E-02  1.184253628236E-02  1.095313420784E-02  1.012447826394E-02
  9.352826867799E-03  8.634646593998E-03  7.966601170773E-03  7.345541132459E-03
  6.768494078067E-03  6.232655489377E-03  5.735380065416E-03  5.274173533589E-03
  4.846684901009E-03  4.450699112726E-03  4.084130086622E-03  3.745014097584E-03
  3.431503486317E-03  3.141860670685E-03  2.874452439833E-03  2.627744513491E-03
  2.400296350834E-03  2.190756195037E-03  1.997856341224E-03  1.820408616913E-03
  1.657300065224E-03  1.507488822198E-03  1.370000180393E-03  1.243922831700E-03
  1.128405282873E-03  1.022652437780E-03  9.259223407242E-04  8.375230754954E-04
  7.568098149787E-04  6.831820163298E-04  6.160807567850E-04  5.549862052370E-04
  4.994152247277E-04  4.489191010111E-04  4.030813923350E-04  3.615158955835E-04
  3.238647239234E-04  2.897964911097E-04  2.590045976342E-04  2.312056139513E-04
  2.061377560861E-04  1.835594490226E-04  1.632479733874E-04  1.449981910791E-04
  1.286213456486E-04  1.139439334061E-04  1.008066414110E-04  8.906334869172E-05
  7.858018723510E-05  6.923465948188E-05  6.091480925469E-05  5.351844323329E-05
  4.695240026990E-05  4.113186600640E-05  3.597973041275E-05  3.142598601140E-05
  2.740716468535E-05  2.386581108758E-05  2.074999077819E-05  1.801283131194E-05
  1.561209458550E-05  1.350977883041E-05  1.167174870653E-05  1.006739201220E-05
  8.669301583281E-06  7.452981004054E-06  6.396572800535E-06  5.480607831122E-06
  4.687774632352E-06  4.002707518931E-06  3.411792277988E-06  2.902988338052E-06
  2.465666333947E-06  2.090460029721E-06  1.769131603150E-06  1.494449337233E-06
  1.260076806397E-06  1.060472687821E-06  8.908003711887E-07  7.468465831455E-07
  6.249482856288E-07  5.219271497657E-07  4.350309491208E-07  3.618812574305E-07
  3.004268764505E-07  2.489024589788E-07  2.057918303476E-07  1.697955485636E-07
  1.398022787042E-07  1.148635910483E-07  9.417182466743E-08  7.704068875572E-08
  6.288830282845E-08  5.122240402117E-08  4.162747510367E-08  3.375357048491E-08
  2.730663946449E-08  2.204016632371E-08  1.774796559757E-08  1.425798808892E-08
  1.142700894498E-08  9.136083487595E-09  7.286669549923E-09  5.797326877454E-09
  4.600914957169E-09  3.642219665864E-09  2.875949408832E-09  2.265045990510E-09
  1.779265553785E-09  1.391171385871E-09  1.087183630002E-09  8.473254752561E-10
  6.585813804547E-10  5.104662040467E-10  3.945565365086E-10  3.041041403722E-10
  2.337180239927E-10  1.791037169038E-10  1.368500770725E-10  1.042554766183E-10
  7.918651262621E-11  5.996350060570E-11  4.526795426473E-11  3.406805828748E-11
  2.555882006864E-11  1.911415898044E-11  1.424867282482E-11  1.058722390263E-11
  7.840823194748E-12  5.787570576157E-12  4.257640507709E-12  3.121493811684E-12
  2.280653414600E-12  1.660510880507E-12  1.204735887160E-12  8.709465288684E-13
  6.273678560229E-13  4.502622386470E-13  3.219603648116E-13  2.293579544339E-13
  1.627722480866E-13  1.150753964924E-13  8.104016548424E-14  5.684781654944E-14
  3.971938785803E-14  2.764050657471E-14  1.915681443462E-14  1.322249221697E-14
  9.088552306316E-15  6.220794163852E-15  4.239794248227E-15  2.877195626396E-15
  1.944004297673E-15  1.307692259793E-15  8.757323543203E-16  5.838099230409E-16
  3.874201693702E-16  2.559056135763E-16  1.682441976794E-16  1.100876614228E-16
  7.168870573183E-17  4.645702025646E-17  2.995816102499E-17  1.922279365261E-17
  1.227239893967E-17  7.795209147831E-18  4.925891576993E-18  3.096519322284E-18
  1.936276544790E-18  1.204309368025E-18  7.450028702193E-19  4.583516528216E-19
  2.804349010803E-19  1.706195561629E-19  1.032190278096E-19  6.208623033984E-20
  3.712832646574E-20  2.207291028161E-20  1.304448974242E-20  7.662612722845E-21
  0.000000000000E+00  0.000000000000E+00  0.000000000000E+00  0.000000000000E+00
  0.000000000000E+00  0.000000000000E+00  0.000000000000E+00  0.000000000000E+00
  0.000000000000E+00  0.000000000000E+00  0.000000000000E+00  0.000000000000E+00
  0.000000000000E+00  0.000000000000E+00
</data>
</radfunc>
</valence-charge>
<pseudocore-charge matching-radius="0.606153510745"
 number-of-continuous-derivatives="4">
<annotation model-charge-form="Teter function with specified parameters" />
<radfunc>
<data npts="291">
  1.900763086806E+02  1.900496070010E+02  1.899672272312E+02  1.898309057193E+02
  1.896414567276E+02  1.893925010888E+02  1.890754565888E+02  1.887127519556E+02
  1.883053611879E+02  1.878308562133E+02  1.872967526179E+02  1.867171137212E+02
  1.860178312022E+02  1.852889564653E+02  1.845623122685E+02  1.837271572641E+02
  1.827678736483E+02  1.818609670305E+02  1.808442108972E+02  1.797050167106E+02
  1.784295456216E+02  1.773009076151E+02  1.760669801725E+02  1.747187870129E+02
  1.732467639088E+02  1.716407592490E+02  1.698900452857E+02  1.684752788558E+02
  1.669678300460E+02  1.653626014588E+02  1.636543656346E+02  1.618377877841E+02
  1.599074539090E+02  1.578579050087E+02  1.556836781109E+02  1.533793549014E+02
  1.509396187496E+02  1.483593209309E+02  1.465585979455E+02  1.446918411065E+02
  1.427577528897E+02  1.407551273535E+02  1.386828649169E+02  1.365399882163E+02
  1.343256590520E+02  1.320391964191E+02  1.296800956093E+02  1.272480483483E+02
  1.247429639177E+02  1.221649911872E+02  1.195145414586E+02  1.167923119929E+02
  1.139993100630E+02  1.111368773375E+02  1.082067143621E+02  1.052109048658E+02
  1.021519395707E+02  9.903273913867E+01  9.585667583760E+01  9.262759345635E+01
  8.934982494739E+01  8.602820722188E+01  8.266809247287E+01  7.927535535494E+01
  7.585639530827E+01  7.241813328211E+01  6.896800209132E+01  6.724094430548E+01
  6.551392963242E+01  6.378802236746E+01  6.206431419570E+01  6.034392293734E+01
  5.862799114257E+01  5.691768453138E+01  5.521419027458E+01  5.351871511238E+01
  5.183248330790E+01  5.015673443345E+01  4.849272098812E+01  4.684170584646E+01
  4.520495953844E+01  4.358375736238E+01  4.197937633336E+01  4.039309197099E+01
  3.882617493161E+01  3.727988749144E+01  3.575547988851E+01  3.425418653300E+01
  3.277722209694E+01  3.132577749598E+01  2.990101577775E+01  2.850406793286E+01
  2.713602864668E+01  2.579795201145E+01  2.449084722046E+01  2.321567426743E+01
  2.197333967626E+01  2.076469228778E+01  1.959051913175E+01  1.845154141380E+01
  1.734841064834E+01  1.628170496957E+01  1.525192565359E+01  1.425949388537E+01
  1.330474780464E+01  1.238793986506E+01  1.150923454040E+01  1.066870641145E+01
  9.866338665605E+00  9.102022040400E+00  8.375554239802E+00  7.686639849957E+00
  7.034890778199E+00  6.419827235697E+00  5.840879280311E+00  5.297388931801E+00
  4.788612866686E+00  4.313725694717E+00  3.871823813118E+00  3.461929828610E+00
  3.082997530690E+00  2.733917392859E+00  2.413522571492E+00  2.120595364948E+00
  1.853874088435E+00  1.612060313127E+00  1.393826411305E+00  1.197823342890E+00
  1.022688612865E+00  8.670543238764E-01  7.295552438464E-01  6.088368050075E-01
  5.035629483369E-01  4.124237262357E-01  3.341425764644E-01  2.674831819648E-01
  2.112558343478E-01  1.643232235372E-01  1.256055823814E-01  9.408512293611E-02
  6.880971055288E-02  4.889573276146E-02  3.353013208865E-02  2.197158520910E-02
  1.355082495491E-02  7.670116440218E-03  3.801913572558E-03  1.486737176403E-03
  3.303304712453E-04  1.613347917356E-07  2.213532432919E-04  7.721376233109E-04
  1.478929200730E-03  2.211132456618E-03  2.875791209559E-03  3.412194419231E-03
  3.786549405504E-03  3.986828752218E-03  4.017889268854E-03  3.896950679282E-03
  3.649508469465E-03  3.305739940136E-03  2.897445463461E-03  2.455548811695E-03
  2.008161859400E-03  1.579200654690E-03  1.187522523654E-03  8.465382161999E-04
  5.642397727306E-04  3.435743565469E-04  1.830872051025E-04  7.775340300013E-05
  1.991849526764E-05  2.719741075674E-07  8.785121268844E-06  3.555511407500E-05
  7.151007371874E-05  1.089440732472E-04  1.418661516977E-04  1.661621733479E-04
  1.795820116411E-04  1.815761855521E-04  1.730150287199E-04  1.558292184874E-04
  1.326127605574E-04  1.062283083299E-04  7.945026035972E-05  5.467394891167E-05
  3.371015058361E-05  1.767401815102E-05  6.967332629619E-06  1.343676940650E-06
  3.860393426007E-08  1.941786111454E-06  5.785902355540E-06  1.032773770152E-05
  1.450041972865E-05  1.752136032033E-05  1.894754012103E-05  1.867733622902E-05
  1.690518115551E-05  1.404106378164E-05  1.061054993866E-05  7.152212745177E-06
  4.128071980982E-06  1.859157393865E-06  4.932583374671E-07  6.150058657656E-09
  0.000000000000E+00  0.000000000000E+00  0.000000000000E+00  0.000000000000E+00
  0.000000000000E+00  0.000000000000E+00  0.000000000000E+00  0.000000000000E+00
  0.000000000000E+00  0.000000000000E+00  0.000000000000E+00  0.000000000000E+00
  0.000000000000E+00  0.000000000000E+00  0.000000000000E+00  0.000000000000E+00
  0.000000000000E+00  0.000000000000E+00  0.000000000000E+00  0.000000000000E+00
  0.000000000000E+00  0.000000000000E+00  0.000000000000E+00  0.000000000000E+00
  0.000000000000E+00  0.000000000000E+00  0.000000000000E+00  0.000000000000E+00
  0.000000000000E+00  0.000000000000E+00  0.000000000000E+00  0.000000000000E+00
  0.000000000000E+00  0.000000000000E+00  0.000000000000E+00  0.000000000000E+00
  0.000000000000E+00  0.000000000000E+00  0.000000000000E+00  0.000000000000E+00
  0.000000000000E+00  0.000000000000E+00  0.000000000000E+00  0.000000000000E+00
  0.000000000000E+00  0.000000000000E+00  0.000000000000E+00  0.000000000000E+00
  0.000000000000E+00  0.000000000000E+00  0.000000000000E+00  0.000000000000E+00
  0.000000000000E+00  0.000000000000E+00  0.000000000000E+00  0.000000000000E+00
  0.000000000000E+00  0.000000000000E+00  0.000000000000E+00  0.000000000000E+00
  0.000000000000E+00  0.000000000000E+00  0.000000000000E+00  0.000000000000E+00
  0.000000000000E+00  0.000000000000E+00  0.000000000000E+00  0.000000000000E+00
  0.000000000000E+00  0.000000000000E+00  0.000000000000E+00  0.000000000000E+00
  0.000000000000E+00  0.000000000000E+00  0.000000000000E+00  0.000000000000E+00
  0.000000000000E+00  0.000000000000E+00  0.000000000000E+00  0.000000000000E+00
  0.000000000000E+00  0.000000000000E+00  0.000000000000E+00
</data>
</radfunc>
</pseudocore-charge>
<semilocal-potentials set="scalar_relativistic">
<slps n="4" l="s" rc="1.41383592476" eref="-3.49003568485">
<radfunc>
<data npts="291">
 -7.304642698197E+00 -7.308385410498E+00 -7.319928048720E+00 -7.339014661374E+00
 -7.365510686983E+00 -7.400277936043E+00 -7.444469874789E+00 -7.494911108087E+00
 -7.551420875746E+00 -7.617046329966E+00 -7.690666182389E+00 -7.770266678281E+00
 -7.865890306338E+00 -7.965089839860E+00 -8.063511151875E+00 -8.176049164105E+00
 -8.304553980079E+00 -8.425302494857E+00 -8.559830128245E+00 -8.709505688262E+00
 -8.875782645479E+00 -9.021782997061E+00 -9.180199468073E+00 -9.351865931907E+00
 -9.537629496626E+00 -9.738341460993E+00 -9.954846314812E+00 -1.012808623301E+01
 -1.031100980604E+01 -1.050393740694E+01 -1.070716960743E+01 -1.092098220542E+01
 -1.114562084632E+01 -1.138129526046E+01 -1.162817315086E+01 -1.188637377752E+01
 -1.215596129784E+01 -1.243693793570E+01 -1.263055312222E+01 -1.282916392162E+01
 -1.303271630436E+01 -1.324113949418E+01 -1.345434511035E+01 -1.367222634128E+01
 -1.389465715635E+01 -1.412149156311E+01 -1.435256291652E+01 -1.458768328673E+01
 -1.482664289116E+01 -1.506920959604E+01 -1.531512849180E+01 -1.556412154556E+01
 -1.581588733292E+01 -1.607010085003E+01 -1.632641340549E+01 -1.658445259019E+01
 -1.684382232188E+01 -1.710410295955E+01 -1.736485148152E+01 -1.762560171972E+01
 -1.788586464147E+01 -1.814512866927E+01 -1.840286002858E+01 -1.865850311318E+01
 -1.891148085858E+01 -1.916119511456E+01 -1.940702701006E+01 -1.952828809676E+01
 -1.964833730645E+01 -1.976709160793E+01 -1.988446673934E+01 -2.000037721864E+01
 -2.011473635442E+01 -2.022745625699E+01 -2.033844785021E+01 -2.044762088423E+01
 -2.055488394944E+01 -2.066014449216E+01 -2.076330883235E+01 -2.086428218401E+01
 -2.096296867873E+01 -2.105927139323E+01 -2.115309238141E+01 -2.124433271192E+01
 -2.133289251201E+01 -2.141867101868E+01 -2.150156663806E+01 -2.158147701415E+01
 -2.165829910786E+01 -2.173192928747E+01 -2.180226343142E+01 -2.186919704435E+01
 -2.193262538705E+01 -2.199244362087E+01 -2.204854696671E+01 -2.210083087859E+01
 -2.214919123096E+01 -2.219352451899E+01 -2.223372807000E+01 -2.226970026397E+01
 -2.230134076050E+01 -2.232855072898E+01 -2.235123307853E+01 -2.236929268394E+01
 -2.238263660401E+01 -2.239117428870E+01 -2.239481777253E+01 -2.239348185201E+01
 -2.238708424642E+01 -2.237554574262E+01 -2.235879032586E+01 -2.233674530038E+01
 -2.230934140504E+01 -2.227651293021E+01 -2.223819784344E+01 -2.219433793140E+01
 -2.214487896594E+01 -2.208977090111E+01 -2.202896810728E+01 -2.196242964672E+01
 -2.189011959361E+01 -2.181200739913E+01 -2.172806830096E+01 -2.163828377425E+01
 -2.154264201984E+01 -2.144113848410E+01 -2.133377640374E+01 -2.122056736820E+01
 -2.110153189179E+01 -2.097669998786E+01 -2.084611173701E+01 -2.070981784232E+01
 -2.056788016494E+01 -2.042037223447E+01 -2.026737972972E+01 -2.010900092666E+01
 -1.994534711198E+01 -1.977654296187E+01 -1.960272688718E+01 -1.942405134777E+01
 -1.924068313972E+01 -1.905280366102E+01 -1.886060916220E+01 -1.866431099059E+01
 -1.846413583830E+01 -1.826032600685E+01 -1.805313970441E+01 -1.784285139573E+01
 -1.762975223004E+01 -1.741415057833E+01 -1.719637271919E+01 -1.697676372100E+01