<?xml version="1.0" encoding="UTF-8" ?>
<psml version="1.1" energy_unit="hartree" length_unit="bohr"
 uuid="39e5bd20-1d65-11e8-718f-fb36967d2249"
 xmlns="http://esl.cecam.org/PSML/ns/1.1">
<provenance creator="ONCVPSP-3.3.0+psml-3.3.0-73 (scalar-relativistic)"
 date="2018-03-01">
<annotation action="semilocal-pseudopotential-generation"
 action-cont="projectors-generation" />
<input-file name="oncvpsp-input">
<![CDATA[# atsym z nc nv iexc psfile
K 19 3 3 -116133 upf
# n l f
1 0 2.0
2 0 2.0
2 1 6.0
3 0 2.0
3 1 6.0
4 0 1.0
# lmax
2
# l rc ep ncon nbas qcut
0 1.35 0.0 4 8 8.2
1 1.45 0.0 4 8 8.6
2 1.6 0.05 4 8 8.2
# lloc lpopt rc5 dvloc0
4 5 1.1 0.0
# l nproj debl
0 2 1.0
1 2 0.8
2 2 0.5
# icmod fcfact
3 5 1.4
# epsh1 epsh2 depsh
-12.0 12.0 0.02
# rlmax drl
4.0 0.01
 0
]]>
</input-file>
</provenance>
<pseudo-atom-spec atomic-label="K" atomic-number="19" z-pseudo="9"
 flavor="Hamann&apos;s oncvpsp" relativity="scalar" spin-dft="no"
 core-corrections="yes">
<annotation pseudo-energy="-28.3284019759" />
<exchange-correlation>
<annotation oncvpsp-xc-code="-116133" oncvpsp-xc-type="libxc-interface" />
<libxc-info number-of-functionals="2">
<functional name="Perdew, Burke &amp; Ernzerhof SOL (GGA)" type="exchange"
 id="116" />
<functional name="Perdew, Burke &amp; Ernzerhof SOL (GGA)" type="correlation"
 id="133" />
</libxc-info>
</exchange-correlation>
<valence-configuration total-valence-charge="9">
<shell n="3" l="s" occupation="2" />
<shell n="3" l="p" occupation="6" />
<shell n="4" l="s" occupation="1" />
</valence-configuration>
</pseudo-atom-spec>
<grid npts="458">
<annotation type="sampled from oncvpsp log grid"
 recipe="r(i:1..N) = r1*exp(a*(i-1)) + r=0; resampled"
 recipe-cont="r1: scale; a: step" scale="0.263157894737E-04"
 step="0.119285708653E-01" delta="0.500000000000E-02" rmax="44.3805247454" />
<grid-data>
  0.000000000000E+00  5.007741529749E-03  1.012260156078E-02  1.518551649569E-02
  2.021910222441E-02  2.536247345865E-02  3.069586001339E-02  3.584482530836E-02
  4.087070279455E-02  4.604868479549E-02  5.126746496251E-02  5.640088820213E-02
  6.204832230958E-02  6.745181355051E-02  7.245639225921E-02  7.783228504730E-02
  8.360704151557E-02  8.874531156514E-02  9.419936624988E-02  9.998861286736E-02
  1.061336514369E-01  1.113205019773E-01  1.167608387415E-01  1.224670498379E-01
  1.284521287929E-01  1.347297041389E-01  1.413140704474E-01  1.464626688527E-01
  1.517988498918E-01  1.573294478995E-01  1.630615462106E-01  1.690024862325E-01
  1.751598768472E-01  1.815416041568E-01  1.881558415833E-01  1.950110603372E-01
  2.021160402665E-01  2.094798811020E-01  2.145375633513E-01  2.197173582809E-01
  2.250222141792E-01  2.304551505184E-01  2.360192596725E-01  2.417177086780E-01
  2.475537410363E-01  2.535306785599E-01  2.596519232631E-01  2.659209592983E-01
  2.723413549396E-01  2.789167646133E-01  2.856509309781E-01  2.925476870557E-01
  2.996109584119E-01  3.068447653918E-01  3.142532254075E-01  3.218405552817E-01
  3.296110736484E-01  3.375692034106E-01  3.457194742577E-01  3.540665252442E-01
  3.626151074297E-01  3.713700865835E-01  3.803364459540E-01  3.895192891051E-01
  3.989238428212E-01  4.085554600823E-01  4.184196231105E-01  4.234406585878E-01
  4.285219464909E-01  4.336642098488E-01  4.388681803670E-01  4.441345985314E-01
  4.494642137138E-01  4.548577842783E-01  4.603160776897E-01  4.658398706219E-01
  4.714299490694E-01  4.770871084582E-01  4.828121537597E-01  4.886058996048E-01
  4.944691704001E-01  5.004028004449E-01  5.064076340502E-01  5.124845256588E-01
  5.186343399668E-01  5.248579520464E-01  5.311562474709E-01  5.375301224406E-01
  5.439804839099E-01  5.505082497168E-01  5.571143487134E-01  5.637997208979E-01
  5.705653175487E-01  5.774121013593E-01  5.843410465756E-01  5.913531391345E-01
  5.984493768041E-01  6.056307693258E-01  6.128983385577E-01  6.202531186204E-01
  6.276961560438E-01  6.352285099163E-01  6.428512520353E-01  6.505654670598E-01
  6.583722526645E-01  6.662727196965E-01  6.742679923328E-01  6.823592082408E-01
  6.905475187397E-01  6.988340889646E-01  7.072200980321E-01  7.157067392085E-01
  7.242952200790E-01  7.329867627200E-01  7.417826038726E-01  7.506839951191E-01
  7.596922030605E-01  7.688085094973E-01  7.780342116112E-01  7.873706221506E-01
  7.968190696164E-01  8.063808984518E-01  8.160574692332E-01  8.258501588640E-01
  8.357603607703E-01  8.457894850996E-01  8.559389589208E-01  8.662102264278E-01
  8.766047491450E-01  8.871240061347E-01  8.977694942083E-01  9.085427281388E-01
  9.194452408765E-01  9.304785837670E-01  9.416443267722E-01  9.529440586935E-01
  9.643793873978E-01  9.759519400466E-01  9.876633633271E-01  9.995153236871E-01
  1.011509507571E+00  1.023647621662E+00  1.035931393122E+00  1.048362569840E+00
  1.060942920678E+00  1.073674235726E+00  1.086558326554E+00  1.099597026473E+00
  1.112792190791E+00  1.126145697080E+00  1.139659445445E+00  1.153335358791E+00
  1.167175383096E+00  1.181181487693E+00  1.195355665546E+00  1.209699933532E+00
  1.224216332735E+00  1.238906928727E+00  1.253773811872E+00  1.268819097615E+00
  1.284044926786E+00  1.299453465907E+00  1.315046907498E+00  1.330827470388E+00
  1.346797400033E+00  1.362958968833E+00  1.379314476459E+00  1.395866250177E+00
  1.412616645179E+00  1.429568044921E+00  1.446722861460E+00  1.464083535798E+00
  1.481652538227E+00  1.499432368686E+00  1.517425557110E+00  1.535634663795E+00
  1.554062279761E+00  1.572711027118E+00  1.591583559444E+00  1.610682562157E+00
  1.630010752903E+00  1.649570881938E+00  1.669365732521E+00  1.689398121311E+00
  1.709670898767E+00  1.730186949552E+00  1.750949192947E+00  1.771960583262E+00
  1.793224110261E+00  1.814742799584E+00  1.836519713179E+00  1.858557949737E+00
  1.880860645134E+00  1.903430972876E+00  1.926272144550E+00  1.949387410285E+00
  1.972780059208E+00  1.996453419919E+00  2.020410860958E+00  2.044655791289E+00
  2.069191660785E+00  2.094021960714E+00  2.119150224243E+00  2.144580026934E+00
  2.170314987257E+00  2.196358767104E+00  2.222715072309E+00  2.249387653177E+00
  2.276380305015E+00  2.303696868675E+00  2.331341231099E+00  2.359317325873E+00
  2.387629133783E+00  2.416280683389E+00  2.445276051589E+00  2.474619364208E+00
  2.504314796579E+00  2.534366574138E+00  2.564778973027E+00  2.595556320704E+00
  2.626702996552E+00  2.658223432511E+00  2.690122113701E+00  2.722403579065E+00
  2.755072422014E+00  2.788133291078E+00  2.821590890571E+00  2.855449981258E+00
  2.889715381033E+00  2.924391965606E+00  2.959484669193E+00  2.994998485223E+00
  3.030938467046E+00  3.067309728650E+00  3.104117445394E+00  3.141366854739E+00
  3.179063256996E+00  3.217212016080E+00  3.255818560273E+00  3.294888382996E+00
  3.334427043592E+00  3.374440168115E+00  3.414933450132E+00  3.455912651534E+00
  3.497383603352E+00  3.539352206593E+00  3.581824433072E+00  3.624806326269E+00
  3.668304002184E+00  3.712323650210E+00  3.756871534013E+00  3.801953992421E+00
  3.847577440330E+00  3.893748369614E+00  3.940473350049E+00  3.987759030250E+00
  4.035612138613E+00  4.084039484276E+00  4.133047958087E+00  4.182644533584E+00
  4.232836267987E+00  4.283630303203E+00  4.335033866842E+00  4.387054273244E+00
  4.439698924523E+00  4.492975311617E+00  4.546891015356E+00  4.601453707541E+00
  4.656671152031E+00  4.712551205855E+00  4.769101820326E+00  4.826331042170E+00
  4.884247014676E+00  4.942857978852E+00  5.002172274598E+00  5.062198341893E+00
  5.122944721996E+00  5.184420058660E+00  5.246633099364E+00  5.309592696556E+00
  5.373307808915E+00  5.437787502622E+00  5.503040952653E+00  5.569077444085E+00
  5.635906373414E+00  5.703537249895E+00  5.771979696894E+00  5.841243453257E+00
  5.911338374696E+00  5.982274435192E+00  6.054061728414E+00  6.126710469155E+00
  6.200230994785E+00  6.274633766723E+00  6.349929371923E+00  6.426128524386E+00
  6.503242066679E+00  6.581280971479E+00  6.660256343137E+00  6.740179419254E+00
  6.821061572286E+00  6.902914311153E+00  6.985749282887E+00  7.069578274281E+00
  7.154413213573E+00  7.240266172136E+00  7.327149366201E+00  7.415075158596E+00
  7.504056060499E+00  7.594104733225E+00  7.685233990024E+00  7.777456797904E+00
  7.870786279479E+00  7.965235714832E+00  8.060818543410E+00  8.157548365931E+00
  8.255438946323E+00  8.354504213678E+00  8.454758264243E+00  8.556215363413E+00
  8.658889947774E+00  8.762796627148E+00  8.867950186673E+00  8.974365588914E+00
  9.082057975981E+00  9.191042671692E+00  9.301335183753E+00  9.412951205958E+00
  9.525906620429E+00  9.640217499874E+00  9.755900109873E+00  9.872970911191E+00
  9.991446562126E+00  1.011134392087E+01  1.023268004792E+01  1.035547220850E+01
  1.047973787500E+01  1.060549472950E+01  1.073276066625E+01  1.086155379425E+01
  1.099189243978E+01  1.112379514906E+01  1.125728069084E+01  1.139236805913E+01
  1.152907647584E+01  1.166742539355E+01  1.180743449828E+01  1.194912371226E+01
  1.209251319680E+01  1.223762335517E+01  1.238447483543E+01  1.253308853345E+01
  1.268348559585E+01  1.283568742300E+01  1.298971567208E+01  1.314559226014E+01
  1.330333936727E+01  1.346297943967E+01  1.362453519295E+01  1.378802961527E+01
  1.395348597065E+01  1.412092780230E+01  1.429037893592E+01  1.446186348315E+01
  1.463540584495E+01  1.481103071509E+01  1.498876308367E+01  1.516862824068E+01
  1.535065177957E+01  1.553485960092E+01  1.572127791613E+01  1.590993325112E+01
  1.610085245014E+01  1.629406267954E+01  1.648959143169E+01  1.668746652887E+01
  1.688771612722E+01  1.709036872075E+01  1.729545314540E+01  1.750299858314E+01
  1.771303456614E+01  1.792559098093E+01  1.814069807270E+01  1.835838644958E+01
  1.857868708697E+01  1.880163133202E+01  1.902725090800E+01  1.925557791890E+01
  1.948664485392E+01  1.972048459217E+01  1.995713040728E+01  2.019661597216E+01
  2.043897536383E+01  2.068424306819E+01  2.093245398501E+01  2.118364343283E+01
  2.143784715403E+01  2.169510131988E+01  2.195544253571E+01  2.221890784614E+01
  2.248553474030E+01  2.275536115718E+01  2.302842549107E+01  2.330476659696E+01
  2.358442379612E+01  2.386743688168E+01  2.415384612426E+01  2.444369227775E+01
  2.473701658508E+01  2.503386078410E+01  2.533426711351E+01  2.563827831887E+01
  2.594593765870E+01  2.625728891060E+01  2.657237637753E+01  2.689124489406E+01
  2.721393983279E+01  2.754050711078E+01  2.787099319611E+01  2.820544511447E+01
  2.854391045584E+01  2.888643738131E+01  2.923307462988E+01  2.958387152544E+01
  2.993887798375E+01  3.029814451955E+01  3.066172225379E+01  3.102966292083E+01
  3.140201887588E+01  3.177884310239E+01  3.216018921962E+01  3.254611149026E+01
  3.293666482814E+01  3.333190480608E+01  3.373188766375E+01  3.413667031572E+01
  3.454631035951E+01  3.496086608382E+01  3.538039647683E+01  3.580496123455E+01
  3.623462076936E+01  3.666943621859E+01  3.710946945322E+01  3.755478308666E+01
  3.800544048370E+01  3.846150576950E+01  3.892304383873E+01  3.939012036480E+01
  3.986280180918E+01  4.034115543089E+01  4.082524929606E+01  4.131515228761E+01
  4.181093411506E+01  4.231266532444E+01  4.282041730834E+01  4.333426231604E+01
  4.385427346383E+01  4.438052474539E+01
</grid-data>
</grid>
<valence-charge total-charge="9" is-unscreening-charge="yes"
 rescaled-to-z-pseudo="no">
<radfunc>
<data npts="458">
  6.484093347468E-02  6.534017559510E-02  6.688087422531E-02  6.943187893803E-02
  7.298010479565E-02  7.764822260388E-02  8.360192285265E-02  9.042526423479E-02
  9.810482200990E-02  1.070703396553E-01  1.171888258158E-01  1.282023029105E-01
  1.415340561715E-01  1.554825732304E-01  1.694421022607E-01  1.855527989712E-01
  2.041463857934E-01  2.218121858304E-01  2.417194749893E-01  2.641526383632E-01
  2.894319882593E-01  3.119456169791E-01  3.367160607406E-01  3.639689204299E-01
  3.939520178897E-01  4.269374519828E-01  4.632237968033E-01  4.928005672451E-01
  5.245671486236E-01  5.586835692835E-01  5.953209633695E-01  6.346621905539E-01
  6.769024521083E-01  7.222498918206E-01  7.709261670631E-01  8.231669714466E-01
  8.792224858397E-01  9.393577289693E-01  9.818520919208E-01  1.026370547386E+00
  1.073002775396E+00  1.121841378480E+00  1.172981811003E+00  1.226522276259E+00
  1.282563586308E+00  1.341208978926E+00  1.402563885445E+00  1.466735642579E+00
  1.533833140653E+00  1.603966399902E+00  1.677246065787E+00  1.753782813471E+00
  1.833686650900E+00  1.917066109139E+00  2.004027307976E+00  2.094672884177E+00
  2.189100769300E+00  2.287402803622E+00  2.389663172650E+00  2.495956652813E+00
  2.606346653455E+00  2.720883043175E+00  2.839599750015E+00  2.962512127066E+00
  3.089614077863E+00  3.220874939625E+00  3.356236126961E+00  3.425427521376E+00
  3.495607544463E+00  3.566759386807E+00  3.638863783451E+00  3.711898884990E+00
  3.785840126471E+00  3.860660094464E+00  3.936328392721E+00  4.012811506880E+00
  4.090072668765E+00  4.168071720836E+00  4.246764981440E+00  4.326105111570E+00
  4.406040983900E+00  4.486517554922E+00  4.567475741097E+00  4.648852299991E+00
  4.730579717423E+00  4.812586101757E+00  4.894795086497E+00  4.977125742440E+00
  5.059492500695E+00  5.141805087942E+00  5.223968475364E+00  5.305882842725E+00
  5.387443559138E+00  5.468541182087E+00  5.549061476295E+00  5.628885454079E+00
  5.707889438806E+00  5.785945153086E+00  5.862919833317E+00  5.938676372160E+00
  6.013073490472E+00  6.085965940169E+00  6.157204739397E+00  6.226637441275E+00
  6.294108437364E+00  6.359459296853E+00  6.422529142269E+00  6.483155062347E+00
  6.541172562445E+00  6.596416052656E+00  6.648719373489E+00  6.697916358713E+00
  6.743841434608E+00  6.786330254551E+00  6.825220367500E+00  6.860351918545E+00
  6.891568379311E+00  6.918717305583E+00  6.941651119110E+00  6.960227910092E+00
  6.974312256461E+00  6.983776055596E+00  6.988499363720E+00  6.988371237783E+00
  6.983290574253E+00  6.973166938841E+00  6.957921380845E+00  6.937487225444E+00
  6.911810837017E+00  6.880852346280E+00  6.844586333851E+00  6.803002462697E+00
  6.756106051817E+00  6.703918583510E+00  6.646478136588E+00  6.583839738041E+00
  6.516075625839E+00  6.443275415861E+00  6.365546166315E+00  6.283012333481E+00
  6.195815613228E+00  6.104114663421E+00  6.008084703158E+00  5.907916985727E+00
  5.803818143206E+00  5.696009401817E+00  5.584725668465E+00  5.470214490313E+00
  5.352734890771E+00  5.232556086960E+00  5.109956095456E+00  4.985220234996E+00
  4.858639536790E+00  4.730509074879E+00  4.601126230822E+00  4.470788908870E+00
  4.339793719456E+00  4.208434150424E+00  4.076998746805E+00  3.945769321024E+00
  3.815019216248E+00  3.685011646005E+00  3.555998133245E+00  3.428217071549E+00
  3.301892430309E+00  3.177232624248E+00  3.054429715007E+00  2.933659432174E+00
  2.815081728525E+00  2.698840519333E+00  2.585063088214E+00  2.473860001968E+00
  2.365325375630E+00  2.259538693796E+00  2.156567569866E+00  2.056468593383E+00
  1.959287268087E+00  1.865058663411E+00  1.773807834447E+00  1.685550298479E+00
  1.600292520432E+00  1.518032407741E+00  1.438759811968E+00  1.362457033904E+00
  1.289099329622E+00  1.218655414907E+00  1.151087965680E+00  1.086354112269E+00
  1.024405925505E+00  9.651908928674E-01  9.086523829883E-01  8.547300971940E-01
  8.033605066944E-01  7.544772743907E-01  7.080116603636E-01  6.638929102733E-01
  6.220486260564E-01  5.824051184506E-01  5.448877410097E-01  5.094212054000E-01
  4.759298778857E-01  4.443380570136E-01  4.145702326084E-01  3.865513262706E-01
  3.602069136481E-01  3.354634288141E-01  3.122483511452E-01  2.904903751338E-01
  2.701195636153E-01  2.510674849156E-01  2.332673344555E-01  2.166540413675E-01
  2.011643606974E-01  1.867369517793E-01  1.733124433829E-01  1.608334862481E-01
  1.492447936274E-01  1.384931704733E-01  1.285275319143E-01  1.192989116754E-01
  1.107604611065E-01  1.028674394903E-01  9.557719630345E-02  8.884914610685E-02
  8.264473673502E-02  7.692741144511E-02  7.166256566977E-02  6.681749899443E-02
  6.236136295020E-02  5.826510517644E-02  5.450141046577E-02  5.104463915862E-02
  4.787076330925E-02  4.495730100351E-02  4.228324917760E-02  3.982901527238E-02
  3.757634806857E-02  3.550826808897E-02  3.360899802942E-02  3.186389378543E-02
  3.025937676169E-02  2.878286825944E-02  2.742272679217E-02  2.616818913837E-02
  2.500931576934E-02  2.393694098359E-02  2.294262767753E-02  2.201862626188E-02
  2.115783689571E-02  2.035377403673E-02  1.960053233364E-02  1.889275308736E-02
  1.822559081211E-02  1.759467974618E-02  1.699610042600E-02  1.642634660796E-02
  1.588229289574E-02  1.536116342601E-02  1.486050191054E-02  1.437814325385E-02
  1.391218688367E-02  1.346097185815E-02  1.302305375513E-02  1.259718330523E-02
  1.218228670135E-02  1.177744749902E-02  1.138189001259E-02  1.099496410898E-02
  1.061613130096E-02  1.024495204530E-02  9.881074155359E-03  9.524222242768E-03
  9.174188107944E-03  8.830822004163E-03  8.494024704381E-03  8.163740304100E-03
  7.839949697144E-03  7.522664664324E-03  7.211922517734E-03  6.907781245986E-03
  6.610315108144E-03  6.319610626808E-03  6.035762933859E-03  5.758872426105E-03
  5.489041692621E-03  5.226372681154E-03  4.970964077496E-03  4.722908879146E-03
  4.482292152507E-03  4.249188970850E-03  4.023662537730E-03  3.805762506777E-03
  3.595523513235E-03  3.392963934902E-03  3.198084899885E-03  3.010869556038E-03
  2.831282612331E-03  2.659270156223E-03  2.494759745311E-03  2.337660757451E-03
  2.187864991086E-03  2.045247486622E-03  1.909667542556E-03  1.780969895409E-03
  1.658986030686E-03  1.543535591666E-03  1.434427853606E-03  1.331463232735E-03
  1.234434801935E-03  1.143129788029E-03  1.057331028973E-03  9.768183726678E-04
  9.013700025743E-04  8.307636786167E-04  7.647778849132E-04  7.031928787028E-04
  6.457916373229E-04  5.923607022733E-04  5.426909212610E-04  4.965780906731E-04
  4.538235021813E-04  4.142343981797E-04  3.776243415032E-04  3.438135054105E-04
  3.126288901581E-04  2.839044726699E-04  2.574812958449E-04  2.332075039624E-04
  2.109383304634E-04  1.905360441248E-04  1.718698593195E-04  1.548158156808E-04
  1.392566320863E-04  1.250815394446E-04  1.121860963363E-04  1.004719911210E-04
  8.984683369895E-05  8.022393970766E-05  7.152210955236E-05  6.366540431542E-05
  5.658292027235E-05  5.020856345871E-05  4.448082548579E-05  3.934256159308E-05
  3.474077174950E-05  3.062638547091E-05  2.695405090530E-05  2.368192864486E-05
  2.077149065229E-05  1.818732463265E-05  1.589694413833E-05  1.387060465941E-05
  1.208112592205E-05  1.050372059117E-05  9.115829548105E-06  7.896963888529E-06
  6.828553758960E-06  5.893804122138E-06  5.077557511381E-06  4.366163802677E-06
  3.747357000754E-06  3.210139002396E-06  2.744670267355E-06  2.342167295117E-06
  1.994806775027E-06  1.695636248464E-06  1.438491095402E-06  1.217917634099E-06
  1.029102102215E-06  8.678052704408E-07  7.303024259382E-07  6.133284524365E-07
  5.140277266808E-07  4.299085469406E-07  3.588018082267E-07  2.988236405293E-07
  2.483417304798E-07  2.059450530813E-07  1.704167482425E-07  1.407098864873E-07
  1.159258791083E-07  9.529529991005E-08  7.816089828332E-08  6.396259639841E-08
  5.222427667550E-08  4.254217903137E-08  3.457474071869E-08  2.803372459785E-08
  2.267649434685E-08  1.829930731031E-08  1.473150733688E-08  1.183051099814E-08
  9.477490980675E-09  7.573670170853E-09  6.037148996915E-09  4.800196956201E-09
  3.806946944483E-09  3.011438038374E-09  2.375958783694E-09  1.869648841599E-09
  1.467322072632E-09  1.148478831624E-09  8.964794399851E-10  6.978545336266E-10
  5.417312914757E-10  4.193574678933E-10  3.237077174735E-10  2.491589466411E-10
  1.912233852374E-10  1.463297730817E-10  1.116445294305E-10  8.492604332803E-11
  6.440631391147E-11  4.869510357303E-11  3.670256320625E-11  2.757696534227E-11
  2.065475372406E-11  1.542060094362E-11  1.147557173603E-11  8.511829452802E-12
  6.292606833782E-12  4.636397935255E-12  3.404523313418E-12  2.491381672425E-12
  1.816833643178E-12  1.320271857590E-12  9.560200274181E-13  6.897757278705E-13
  4.958698994651E-13  3.551631378360E-13  2.534366695069E-13  1.801662055810E-13
  1.275910321910E-13  9.000990090018E-14  6.325048346244E-14  4.427114049318E-14
  3.086316553863E-14  2.142902761261E-14  1.481786986445E-14  1.020397100090E-14
  6.997313410394E-15  4.778046613056E-15  3.248660921405E-15  2.199232062818E-15
  1.482271824261E-15  9.946079752024E-16  6.643855765084E-16  4.417832321036E-16
  2.924121047735E-16  1.926435940620E-16  1.263172411532E-16  8.243183087618E-17
  5.353362911539E-17  3.459653793563E-17  0.000000000000E+00  0.000000000000E+00
  0.000000000000E+00  0.000000000000E+00
</data>
</radfunc>
</valence-charge>
<pseudocore-charge matching-radius="0.674267992333"
 number-of-continuous-derivatives="4">
<annotation model-charge-form="Teter function with specified parameters" />
<radfunc>
<data npts="257">
  3.515803754389E+01  3.515491158128E+01  3.514526643938E+01  3.512930256170E+01
  3.510711066520E+01  3.507793661754E+01  3.504076443298E+01  3.499821248948E+01
  3.495038449216E+01  3.489463235368E+01  3.483181967756E+01  3.476358212494E+01
  3.468116256454E+01  3.459514165290E+01  3.450926802857E+01  3.441042695425E+01
  3.429670419013E+01  3.418900164065E+01  3.406803348805E+01  3.393221981434E+01
  3.377980703680E+01  3.364462691472E+01  3.349649630822E+01  3.333423877920E+01
  3.315658449232E+01  3.296216570319E+01  3.274951271909E+01  3.257711336608E+01
  3.239286941291E+01  3.219604228312E+01  3.198585891331E+01  3.176151202691E+01
  3.152216079729E+01  3.126693197110E+01  3.099492153109E+01  3.070519698653E+01
  3.039680038899E+01  3.006875218016E+01  2.983864429962E+01  2.959906156640E+01
  2.934970449968E+01  2.909027335376E+01  2.882046925709E+01  2.853999548245E+01
  2.824855885716E+01  2.794587132182E+01  2.763165164637E+01  2.730562731177E+01
  2.696753656538E+01  2.661713065739E+01  2.625417626512E+01  2.587845811070E+01
  2.548978177660E+01  2.508797672182E+01  2.467289949941E+01  2.424443717407E+01
  2.380251093533E+01  2.334707989893E+01  2.287814508521E+01  2.239575355882E+01
  2.190000270950E+01  2.139104464794E+01  2.086909068480E+01  2.033441585400E+01
  1.978736343426E+01  1.922834941468E+01  1.865786684164E+01  1.836850102298E+01
  1.807648997528E+01  1.778191880833E+01  1.748487817436E+01  1.718546436804E+01
  1.688377941855E+01  1.657993117259E+01  1.627403336766E+01  1.596620569444E+01
  1.565657384751E+01  1.534526956313E+01  1.503243064335E+01  1.471820096509E+01
  1.440273047329E+01  1.408617515701E+01  1.376869700724E+01  1.345046395550E+01
  1.313164979186E+01  1.281243406151E+01  1.249300193859E+01  1.217354407630E+01
  1.185425643222E+01  1.153534006771E+01  1.121700092068E+01  1.089944955053E+01
  1.058290085462E+01  1.026757375550E+01  9.953690858129E+00  9.641478076733E+00
  9.331164230704E+00  9.022980609387E+00  8.717160505594E+00  8.413938717902E+00
  8.113551021983E+00  7.816233611405E+00  7.522222508584E+00  7.231752946773E+00
  6.945058724253E+00  6.662371532139E+00  6.383920257510E+00  6.109930263844E+00
  5.840622651072E+00  5.576213497846E+00  5.316913088980E+00  5.062925131307E+00
  4.814445961564E+00  4.571663750221E+00  4.334757705521E+00  4.103897282293E+00
  3.879241400434E+00  3.660937678226E+00  3.449121685952E+00  3.243916225487E+00
  3.045430641785E+00  2.853760172341E+00  2.668985340857E+00  2.491171401397E+00
  2.320367839376E+00  2.156607935673E+00  1.999908400072E+00  1.850269080046E+00
  1.707672750657E+00  1.572084991008E+00  1.443454152257E+00  1.321711421694E+00
  1.206770986759E+00  1.098530302219E+00  9.968704628611E-01  9.016566832598E-01
  8.127388851175E-01  7.299523916868E-01  6.531187276181E-01  5.820465213930E-01
  5.165325062529E-01  4.563626142452E-01  4.013131566972E-01  3.511520831163E-01
  3.056403092140E-01  2.645331034952E-01  2.275815206579E-01  1.945338689442E-01
  1.651371975949E-01  1.391387897132E-01  1.162876451698E-01  9.633593770238E-02
  7.904043010791E-02  6.416383141262E-02  5.147608015782E-02  4.075553847096E-02
  3.179008241240E-02  2.437807520569E-02  1.832921136907E-02  1.346522146128E-02
  9.620429119133E-03  6.642154271870E-03  4.390958836994E-03  2.740733790741E-03
  1.578629215832E-03  8.048317017043E-04  3.321962452209E-04  8.574250424835E-05
  2.027820301795E-06  2.841177620009E-05  1.222291173178E-04  2.498895710218E-04
  3.859243845846E-04  5.120002125006E-04  6.159212765513E-04  6.906404673298E-04
  7.332992421212E-04  7.443148075380E-04  7.265311827040E-04  6.844483672587E-04
  6.235410557337E-04  5.496752329085E-04  4.686276576825E-04  3.857098137463E-04
  3.054945014421E-04  2.316399986372E-04  1.668037596770E-04  1.126350731361E-04
  6.983406924635E-05  3.826304375199E-05  1.709530697192E-05  4.986703924675E-06
  2.555774159293E-07  1.058218404231E-06  5.548688177133E-06  1.201419322961E-05
  1.897980675275E-05  2.527910052169E-05  3.009000709713E-05  3.293780410544E-05
  3.366934122141E-05  3.240438105797E-05  2.947109624130E-05  2.533329799927E-05
  2.051685656829E-05  1.554205116204E-05  1.086734619084E-05  6.848462005254E-06
  3.714755320957E-06  1.563026796452E-06  3.671121546025E-07  1.536094863207E-10
  2.654221379789E-07  9.310534581568E-07  1.764100197382E-06  2.559858235005E-06
  3.163407864161E-06  3.481583866835E-06  3.484984600692E-06  3.200968993145E-06
  2.699703239473E-06  2.076070409818E-06  1.430561966397E-06  8.521096784156E-07
  4.052356628729E-07  1.230037928545E-07  6.198845728713E-09  0.000000000000E+00
  0.000000000000E+00  0.000000000000E+00  0.000000000000E+00  0.000000000000E+00
  0.000000000000E+00  0.000000000000E+00  0.000000000000E+00  0.000000000000E+00
  0.000000000000E+00  0.000000000000E+00  0.000000000000E+00  0.000000000000E+00
  0.000000000000E+00  0.000000000000E+00  0.000000000000E+00  0.000000000000E+00
  0.000000000000E+00  0.000000000000E+00  0.000000000000E+00  0.000000000000E+00
  0.000000000000E+00  0.000000000000E+00  0.000000000000E+00  0.000000000000E+00
  0.000000000000E+00  0.000000000000E+00  0.000000000000E+00  0.000000000000E+00
  0.000000000000E+00
</data>
</radfunc>
</pseudocore-charge>
<semilocal-potentials set="scalar_relativistic">
<slps n="3" l="s" rc="1.36295896883" eref="-1.29603920931">
<radfunc>
<data npts="257">
  5.320448560686E+01  5.316685505882E+01  5.305098070722E+01  5.285997107712E+01
  5.259603854975E+01  5.225186074911E+01  5.181786171619E+01  5.132718604601E+01
  5.078333371712E+01  5.015938441076E+01  4.946899972780E+01  4.873367568071E+01
  4.786527631073E+01  4.698118107867E+01  4.612043527834E+01  4.515567989147E+01
  4.407861715634E+01  4.308964205537E+01  4.201322326398E+01  4.084593074280E+01
  3.958513265826E+01  3.850803364793E+01  3.736972989971E+01  3.617048459428E+01
  3.491117589865E+01  3.359334852834E+01  3.221925466320E+01  3.115352818100E+01
  3.005935217173E+01  2.893849739719E+01  2.779296508988E+01  2.662497850190E+01
  2.543697069110E+01  2.423156859388E+01  2.301157354625E+01  2.177993852869E+01
  2.053974252086E+01  1.929416245386E+01  1.846238520253E+01  1.763062842191E+01
  1.679986719593E+01  1.597107560717E+01  1.514522261532E+01  1.432326801773E+01
  1.350615853252E+01  1.269482404260E+01  1.189017403642E+01  1.109309427837E+01
  1.030444373818E+01  9.525051804396E+00  8.755715803217E+00  7.997198838975E+00
  7.250227968166E+00  6.515492714064E+00  5.793643924290E+00  5.085292969123E+00
  4.391011273897E+00  3.711330174698E+00  3.046741082680E+00  2.397695938778E+00
  1.764607937466E+00  1.147852495391E+00  5.477684383587E-01 -3.534062181201E-02
 -6.012047506519E-01 -1.149586025827E+00 -1.680276775387E+00 -1.938931128615E+00
 -2.193097751865E+00 -2.442758375677E+00 -2.687896274696E+00 -2.928496210147E+00
 -3.164544373035E+00 -3.396028328328E+00 -3.622936960350E+00 -3.845260419569E+00
 -4.062990071062E+00 -4.276118444812E+00 -4.484639187997E+00 -4.688547019582E+00
 -4.887837687267E+00 -5.082507926976E+00 -5.272555425081E+00 -5.457978783445E+00
 -5.638777487407E+00 -5.814951876805E+00 -5.986503120112E+00 -6.153433191726E+00
 -6.315744852440E+00 -6.473441633090E+00 -6.626527821349E+00 -6.775008451600E+00
 -6.918889297782E+00 -7.058176869082E+00 -7.192878408291E+00 -7.323001892596E+00
 -7.448556036551E+00 -7.569550296913E+00 -7.685994878969E+00 -7.797900743945E+00
 -7.905279617035E+00 -8.008143995515E+00 -8.106507156379E+00 -8.200383162878E+00
 -8.289786869291E+00 -8.374733923239E+00 -8.455240764807E+00 -8.531324621734E+00
 -8.603003499948E+00 -8.670296168727E+00 -8.733222139820E+00 -8.791801639977E+00
 -8.846055576399E+00 -8.896005494822E+00 -8.941673530137E+00 -8.983082349688E+00
 -9.020255089722E+00 -9.053215285791E+00 -9.081986798369E+00 -9.106593735365E+00
 -9.127060373799E+00 -9.143411083440E+00 -9.155670255866E+00 -9.163862243028E+00
 -9.168011310130E+00 -9.168141608287E+00 -9.164277173165E+00 -9.156441956457E+00
 -9.144659897690E+00 -9.128955044455E+00 -9.109351729632E+00 -9.085874814544E+00
 -9.058550007242E+00 -9.027404265132E+00 -8.992466291009E+00 -8.953767131091E+00
 -8.911340882903E+00 -8.865225519711E+00 -8.815463836646E+00 -8.762104521564E+00
 -8.705203351123E+00 -8.644824509265E+00 -8.581042021415E+00 -8.513941293070E+00
 -8.443620736025E+00 -8.370193459339E+00 -8.293788995149E+00 -8.214555021739E+00
 -8.132659037922E+00 -8.048289933971E+00 -7.961659395262E+00 -7.873003065208E+00
 -7.782581384762E+00 -7.690680017893E+00 -7.597609765674E+00 -7.503705866493E+00
 -7.409326577571E+00 -7.314850934310E+00 -7.220675589486E+00 -7.127210645068E+00
 -7.034874405901E+00 -6.944087007358E+00 -6.855262905295E+00 -6.768802158487E+00
 -6.685080611510E+00 -6.604440834296E+00 -6.525969183806E+00 -6.448391860279E+00
 -6.371747740444E+00 -6.296021476818E+00 -6.221197334048E+00 -6.147262711821E+00
 -6.074217054990E+00 -6.002066839731E+00 -5.930806621464E+00 -5.860421502534E+00
 -5.790898950740E+00 -5.722226587732E+00 -5.654390565352E+00 -5.587377034259E+00
 -5.521171923284E+00 -5.455761190777E+00 -5.391131003186E+00 -5.327267915504E+00
 -5.264159038852E+00 -5.201792187275E+00 -5.140155996236E+00 -5.079240005779E+00