<?xml version="1.0" encoding="UTF-8" ?>
<psml version="1.1" energy_unit="hartree" length_unit="bohr"
 uuid="46854d80-1d5f-11e8-42e5-d9d6fef4865c"
 xmlns="http://esl.cecam.org/PSML/ns/1.1">
<provenance creator="ONCVPSP-3.3.0+psml-3.3.0-73 (scalar-relativistic)"
 date="2018-03-01">
<annotation action="semilocal-pseudopotential-generation"
 action-cont="projectors-generation" />
<input-file name="oncvpsp-input">
<![CDATA[# atsym z nc nv iexc psfile
Be 4 0 2 -116133 upf
# n l f
1 0 2.0
2 0 2.0
# lmax
1
# l rc ep ncon nbas qcut
0 1.35 0.0 4 8 9.2
1 1.1 0.0 4 8 9.4
# lloc lpopt rc5 dvloc0
4 5 0.95 0.0
# l nproj debl
0 2 1.0
1 2 1.0
# icmod fcfact
0 0.25
# epsh1 epsh2 depsh
-12.0 12.0 0.02
# rlmax drl
4.0 0.01
 0
]]>
</input-file>
</provenance>
<pseudo-atom-spec atomic-label="Be" atomic-number="4" z-pseudo="4"
 flavor="Hamann&apos;s oncvpsp" relativity="scalar" spin-dft="no"
 core-corrections="no">
<annotation pseudo-energy="-13.7369351034" />
<exchange-correlation>
<annotation oncvpsp-xc-code="-116133" oncvpsp-xc-type="libxc-interface" />
<libxc-info number-of-functionals="2">
<functional name="Perdew, Burke &amp; Ernzerhof SOL (GGA)" type="exchange"
 id="116" />
<functional name="Perdew, Burke &amp; Ernzerhof SOL (GGA)" type="correlation"
 id="133" />
</libxc-info>
</exchange-correlation>
<valence-configuration total-valence-charge="4">
<shell n="1" l="s" occupation="2" />
<shell n="2" l="s" occupation="2" />
</valence-configuration>
</pseudo-atom-spec>
<grid npts="457">
<annotation type="sampled from oncvpsp log grid"
 recipe="r(i:1..N) = r1*exp(a*(i-1)) + r=0; resampled"
 recipe-cont="r1: scale; a: step" scale="0.125000000000E-03"
 step="0.119285708653E-01" delta="0.500000000000E-02" rmax="44.1813421228" />
<grid-data>
  0.000000000000E+00  5.045089664318E-03  1.007717068006E-02  1.511736293017E-02
  2.012835760545E-02  2.524864506191E-02  3.055809503800E-02  3.568395144868E-02
  4.068727247651E-02  4.584201536434E-02  5.103737331347E-02  5.614775742254E-02
  6.176984548592E-02  6.714908551389E-02  7.299677779476E-02  7.841276441878E-02
  8.423058948002E-02  8.940718115625E-02  9.490191261456E-02  1.007343358937E-01
  1.069252046495E-01  1.121507391337E-01  1.176316503622E-01  1.233804188347E-01
  1.294101349845E-01  1.357345289867E-01  1.423680020228E-01  1.475549990844E-01
  1.529309777861E-01  1.585028234335E-01  1.642776721897E-01  1.702629202147E-01
  1.764662331383E-01  1.828955558777E-01  1.895591228129E-01  1.964654683334E-01
  2.036234377681E-01  2.110421987141E-01  2.161376015599E-01  2.213560278119E-01
  2.267004477474E-01  2.321739033578E-01  2.377795100805E-01  2.435204585719E-01
  2.494000165237E-01  2.554215305226E-01  2.615884279555E-01  2.679042189601E-01
  2.743724984227E-01  2.809969480246E-01  2.877813383377E-01  2.947295309705E-01
  3.018454807663E-01  3.091332380539E-01  3.165969509535E-01  3.242408677373E-01
  3.320693392479E-01  3.400868213747E-01  3.482978775900E-01  3.567071815465E-01
  3.653195197378E-01  3.741397942224E-01  3.831730254141E-01  3.924243549397E-01
  4.018990485653E-01  4.116024991939E-01  4.215402299344E-01  4.265987126936E-01
  4.317178972460E-01  4.368985120129E-01  4.421412941571E-01  4.474469896869E-01
  4.528163535632E-01  4.582501498060E-01  4.637491516036E-01  4.693141414229E-01
  4.749459111199E-01  4.806452620534E-01  4.864130051980E-01  4.922499612604E-01
  4.981569607955E-01  5.041348443251E-01  5.101844624570E-01  5.163066760065E-01
  5.225023561185E-01  5.287723843920E-01  5.351176530047E-01  5.415390648407E-01
  5.480375336188E-01  5.546139840222E-01  5.612693518305E-01  5.680045840525E-01
  5.748206390611E-01  5.817184867298E-01  5.886991085706E-01  5.957634978734E-01
  6.029126598479E-01  6.101476117661E-01  6.174693831073E-01  6.248790157046E-01
  6.323775638930E-01  6.399660946597E-01  6.476456877956E-01  6.554174360492E-01
  6.632824452818E-01  6.712418346252E-01  6.792967366407E-01  6.874482974804E-01
  6.956976770501E-01  7.040460491747E-01  7.124946017648E-01  7.210445369860E-01
  7.296970714298E-01  7.384534362870E-01  7.473148775224E-01  7.562826560527E-01
  7.653580479253E-01  7.745423445004E-01  7.838368526344E-01  7.932428948661E-01
  8.027618096044E-01  8.123949513197E-01  8.221436907355E-01  8.320094150244E-01
  8.419935280047E-01  8.520974503407E-01  8.623226197448E-01  8.726704911817E-01
  8.831425370759E-01  8.937402475208E-01  9.044651304911E-01  9.153187120570E-01
  9.263025366017E-01  9.374181670409E-01  9.486671850454E-01  9.600511912659E-01
  9.715718055611E-01  9.832306672278E-01  9.950294352346E-01  1.006969788457E+00
  1.019053425919E+00  1.031282067030E+00  1.043657451834E+00  1.056181341256E+00
  1.068855517351E+00  1.081681783560E+00  1.094661964962E+00  1.107797908542E+00
  1.121091483444E+00  1.134544581246E+00  1.148159116221E+00  1.161937025615E+00
  1.175880269923E+00  1.189990833162E+00  1.204270723160E+00  1.218721971838E+00
  1.233346635500E+00  1.248146795126E+00  1.263124556667E+00  1.278282051347E+00
  1.293621435963E+00  1.309144893195E+00  1.324854631913E+00  1.340752887496E+00
  1.356841922146E+00  1.373124025212E+00  1.389601513514E+00  1.406276731677E+00
  1.423152052457E+00  1.440229877086E+00  1.457512635611E+00  1.475002787239E+00
  1.492702820685E+00  1.510615254534E+00  1.528742637588E+00  1.547087549239E+00
  1.565652599830E+00  1.584440431028E+00  1.603453716200E+00  1.622695160795E+00
  1.642167502724E+00  1.661873512757E+00  1.681815994910E+00  1.701997786849E+00
  1.722421760291E+00  1.743090821415E+00  1.764007911272E+00  1.785176006207E+00
  1.806598118281E+00  1.828277295701E+00  1.850216623249E+00  1.872419222728E+00
  1.894888253401E+00  1.917626912442E+00  1.940638435391E+00  1.963926096616E+00
  1.987493209775E+00  2.011343128292E+00  2.035479245832E+00  2.059904996782E+00
  2.084623856743E+00  2.109639343024E+00  2.134955015140E+00  2.160574475322E+00
  2.186501369026E+00  2.212739385454E+00  2.239292258080E+00  2.266163765177E+00
  2.293357730359E+00  2.320878023123E+00  2.348728559401E+00  2.376913302113E+00
  2.405436261739E+00  2.434301496880E+00  2.463513114842E+00  2.493075272220E+00
  2.522992175487E+00  2.553268081593E+00  2.583907298572E+00  2.614914186155E+00
  2.646293156389E+00  2.678048674265E+00  2.710185258356E+00  2.742707481457E+00
  2.775619971234E+00  2.808927410889E+00  2.842634539820E+00  2.876746154297E+00
  2.911267108149E+00  2.946202313447E+00  2.981556741208E+00  3.017335422103E+00
  3.053543447168E+00  3.090185968534E+00  3.127268200156E+00  3.164795418558E+00
  3.202772963581E+00  3.241206239144E+00  3.280100714014E+00  3.319461922582E+00
  3.359295465653E+00  3.399607011241E+00  3.440402295375E+00  3.481687122920E+00
  3.523467368395E+00  3.565748976816E+00  3.608537964538E+00  3.651840420112E+00
  3.695662505153E+00  3.740010455215E+00  3.784890580678E+00  3.830309267646E+00
  3.876272978858E+00  3.922788254604E+00  3.969861713659E+00  4.017500054223E+00
  4.065710054874E+00  4.114498575532E+00  4.163872558439E+00  4.213839029140E+00
  4.264405097490E+00  4.315577958659E+00  4.367364894163E+00  4.419773272893E+00
  4.472810552168E+00  4.526484278794E+00  4.580802090140E+00  4.635771715221E+00
  4.691400975804E+00  4.747697787514E+00  4.804670160964E+00  4.862326202895E+00
  4.920674117330E+00  4.979722206738E+00  5.039478873219E+00  5.099952619697E+00
  5.161152051134E+00  5.223085875747E+00  5.285762906256E+00  5.349192061131E+00
  5.413382365865E+00  5.478342954255E+00  5.544083069706E+00  5.610612066543E+00
  5.677939411341E+00  5.746074684278E+00  5.815027580489E+00  5.884807911455E+00
  5.955425606392E+00  6.026890713669E+00  6.099213402233E+00  6.172403963060E+00
  6.246472810616E+00  6.321430484344E+00  6.397287650156E+00  6.474055101958E+00
  6.551743763181E+00  6.630364688340E+00  6.709929064600E+00  6.790448213375E+00
  6.871933591935E+00  6.954396795039E+00  7.037849556579E+00  7.122303751258E+00
  7.207771396273E+00  7.294264653028E+00  7.381795828865E+00  7.470377378811E+00
  7.560021907357E+00  7.650742170245E+00  7.742551076288E+00  7.835461689203E+00
  7.929487229474E+00  8.024641076228E+00  8.120936769142E+00  8.218388010372E+00
  8.317008666496E+00  8.416812770494E+00  8.517814523740E+00  8.620028298025E+00
  8.723468637602E+00  8.828150261253E+00  8.934088064388E+00  9.041297121160E+00
  9.149792686614E+00  9.259590198854E+00  9.370705281240E+00  9.483153744615E+00
  9.596951589550E+00  9.712115008625E+00  9.828660388728E+00  9.946604313393E+00
  1.006596356515E+01  1.018675512794E+01  1.030899618947E+01  1.043270414374E+01
  1.055789659347E+01  1.068459135259E+01  1.081280644882E+01  1.094256012621E+01
  1.107387084772E+01  1.120675729790E+01  1.134123838547E+01  1.147733324610E+01
  1.161506124505E+01  1.175444197999E+01  1.189549528375E+01  1.203824122715E+01
  1.218270012188E+01  1.232889252334E+01  1.247683923362E+01  1.262656130443E+01
  1.277808004008E+01  1.293141700056E+01  1.308659400457E+01  1.324363313262E+01
  1.340255673021E+01  1.356338741098E+01  1.372614805991E+01  1.389086183663E+01
  1.405755217867E+01  1.422624280481E+01  1.439695771847E+01  1.456972121109E+01
  1.474455786562E+01  1.492149256001E+01  1.510055047073E+01  1.528175707638E+01
  1.546513816130E+01  1.565071981923E+01  1.583852845706E+01  1.602859079855E+01
  1.622093388813E+01  1.641558509479E+01  1.661257211592E+01  1.681192298131E+01
  1.701366605709E+01  1.721783004978E+01  1.742444401037E+01  1.763353733850E+01
  1.784513978656E+01  1.805928146400E+01  1.827599284157E+01  1.849530475566E+01
  1.871724841273E+01  1.894185539369E+01  1.916915765841E+01  1.939918755031E+01
  1.963197780091E+01  1.986756153453E+01  2.010597227294E+01  2.034724394022E+01
  2.059141086750E+01  2.083850779791E+01  2.108856989148E+01  2.134163273018E+01
  2.159773232294E+01  2.185690511082E+01  2.211918797215E+01  2.238461822781E+01
  2.265323364655E+01  2.292507245031E+01  2.320017331971E+01  2.347857539955E+01
  2.376031830434E+01  2.404544212399E+01  2.433398742948E+01  2.462599527863E+01
  2.492150722198E+01  2.522056530864E+01  2.552321209235E+01  2.582949063745E+01
  2.613944452510E+01  2.645311785940E+01  2.677055527372E+01  2.709180193700E+01
  2.741690356025E+01  2.774590640297E+01  2.807885727980E+01  2.841580356716E+01
  2.875679320997E+01  2.910187472849E+01  2.945109722523E+01  2.980451039193E+01
  3.016216451664E+01  3.052411049083E+01  3.089039981672E+01  3.126108461453E+01
  3.163621762990E+01  3.201585224146E+01  3.240004246836E+01  3.278884297798E+01
  3.318230909371E+01  3.358049680284E+01  3.398346276447E+01  3.439126431764E+01
  3.480395948946E+01  3.522160700333E+01  3.564426628737E+01  3.607199748282E+01
  3.650486145261E+01  3.694291979004E+01  3.738623482752E+01  3.783486964545E+01
  3.828888808120E+01  3.874835473817E+01  3.921333499503E+01  3.968389501497E+01
  4.016010175515E+01  4.064202297621E+01  4.112972725193E+01  4.162328397895E+01
  4.212276338670E+01  4.262823654734E+01  4.313977538591E+01  4.365745269054E+01
  4.418134212282E+01
</grid-data>
</grid>
<valence-charge total-charge="4" is-unscreening-charge="yes"
 rescaled-to-z-pseudo="no">
<radfunc>
<data npts="457">
  5.990234718732E+01  5.989354046828E+01  5.986721864520E+01  5.982332003489E+01
  5.976231760951E+01  5.968216195552E+01  5.958009683888E+01  5.946335030472E+01
  5.933224297313E+01  5.917956707990E+01  5.900775384571E+01  5.882133937680E+01
  5.859651189804E+01  5.836224584262E+01  5.808660806089E+01  5.781210448952E+01
  5.749696821481E+01  5.719920261024E+01  5.686556022603E+01  5.649198004665E+01
  5.607401132748E+01  5.570442568149E+01  5.530064874943E+01  5.485982456028E+01
  5.437892267683E+01  5.385474167821E+01  5.328391661916E+01  5.282307770734E+01
  5.233249296304E+01  5.181059250068E+01  5.125577726438E+01  5.066642790177E+01
  5.004091547527E+01  4.937761422133E+01  4.867491657440E+01  4.793125067429E+01
  4.714510057210E+01  4.631502933837E+01  4.573658505360E+01  4.513766298136E+01
  4.451793124807E+01  4.387709329159E+01  4.321489269519E+01  4.253111831507E+01
  4.182560969362E+01  4.109826274603E+01  4.034903570187E+01  3.957795527730E+01
  3.878512304599E+01  3.797072196915E+01  3.713502303600E+01  3.627839195639E+01
  3.540129583688E+01  3.450430976016E+01  3.358812317600E+01  3.265354599941E+01
  3.170151429907E+01  3.073309544616E+01  2.974949258112E+01  2.875204824413E+01
  2.774224700357E+01  2.672171690781E+01  2.569222957780E+01  2.465569875390E+01
  2.361417710879E+01  2.256985114218E+01  2.152503398105E+01  2.100319640101E+01
  2.048215592407E+01  1.996223270153E+01  1.944375259001E+01  1.892704664263E+01
  1.841245055939E+01  1.790030409669E+01  1.739095043604E+01  1.688473551230E+01
  1.638200730204E+01  1.588311507291E+01  1.538840859514E+01  1.489823731662E+01
  1.441294950340E+01  1.393289134761E+01  1.345840604546E+01  1.298983284796E+01
  1.252750608761E+01  1.207175418471E+01  1.162289863714E+01  1.118125299796E+01
  1.074712184546E+01  1.032079975090E+01  9.902570249019E+00  9.492704817311E+00
  9.091461869965E+00  8.699085772755E+00  8.315805885468E+00  7.941835638565E+00
  7.577371650978E+00  7.222592896020E+00  6.877659922433E+00  6.542714137579E+00
  6.217877159658E+00  5.903250245727E+00  5.598913801969E+00  5.304926982395E+00
  5.021327381714E+00  4.748130827606E+00  4.485331277040E+00  4.232900820600E+00
  3.990789798026E+00  3.758927027288E+00  3.537220148637E+00  3.325556084035E+00
  3.123801611315E+00  2.931804051329E+00  2.749392065161E+00  2.576376557309E+00
  2.412551679574E+00  2.257695929180E+00  2.111573333512E+00  1.973934712751E+00
  1.844519010617E+00  1.723054682513E+00  1.609261129458E+00  1.502850165528E+00
  1.403527505897E+00  1.310994262183E+00  1.224948431559E+00  1.145086366037E+00
  1.071104208502E+00  1.002699282409E+00  9.395714226703E-01  8.814242359802E-01
  8.279662798626E-01  7.789121508454E-01  7.339834735332E-01  6.929097838307E-01
  6.554293011908E-01  6.212895864804E-01  5.902480838367E-01  5.620725467035E-01
  5.365413500701E-01  5.134436927207E-01  4.925796950000E-01  4.737603991838E-01
  4.568076809655E-01  4.415540817856E-01  4.278425727201E-01  4.155262613522E-01
  4.044680534719E-01  3.945402815388E-01  3.856243116107E-01  3.776101398478E-01
  3.703959887755E-01  3.638879122018E-01  3.579994160817E-01  3.526511007167E-01
  3.477703275328E-01  3.432909113654E-01  3.391528367907E-01  3.353019946916E-01
  3.316899330600E-01  3.282736141600E-01  3.250151687440E-01  3.218816371773E-01
  3.188446871933E-01  3.158801670579E-01  3.129671084318E-01  3.100865306284E-01
  3.072211681955E-01  3.043555548443E-01  3.014758441339E-01  2.985697338915E-01
  2.956263786386E-01  2.926363069573E-01  2.895913420617E-01  2.864845253717E-01
  2.833100429363E-01  2.800631545711E-01  2.767401255969E-01  2.733381610778E-01
  2.698553424691E-01  2.662905665923E-01  2.626434868631E-01  2.589144567024E-01
  2.551044750730E-01  2.512151340629E-01  2.472485685036E-01  2.432074075343E-01
  2.390947280895E-01  2.349140102637E-01  2.306690945204E-01  2.263641407068E-01
  2.220035888467E-01  2.175921216790E-01  2.131346289149E-01  2.086361731861E-01
  2.041019576563E-01  1.995372952715E-01  1.949475796196E-01  1.903382573762E-01
  1.857148023057E-01  1.810826907934E-01  1.764473788774E-01  1.718142807543E-01
  1.671887487252E-01  1.625760545556E-01  1.579813722136E-01  1.534097619577E-01
  1.488661557384E-01  1.443553438812E-01  1.398819630163E-01  1.354504852182E-01
  1.310652083209E-01  1.267302473699E-01  1.224495271751E-01  1.182267759252E-01
  1.140655198248E-01  1.099690787159E-01  1.059405626419E-01  1.019828693154E-01
  9.809868244829E-02  9.429047090159E-02  9.056048861556E-02  8.691077527596E-02
  8.334315767541E-02  7.985925172708E-02  7.646046508818E-02  7.314800035107E-02
  6.992285875956E-02  6.678584440867E-02  6.373756888632E-02  6.077845631630E-02
  5.790874876267E-02  5.512851195686E-02  5.243764131006E-02  4.983586817519E-02
  4.732276632452E-02  4.489775861121E-02  4.256012378521E-02  4.030900343679E-02
  3.814340904324E-02  3.606222909110E-02  3.406423628766E-02  3.214809478014E-02
  3.031236743383E-02  2.855552312562E-02  2.687594404884E-02  2.527193302053E-02
  2.374172078252E-02  2.228347328745E-02  2.089529896031E-02  1.957525592417E-02
  1.832135917716E-02  1.713158770525E-02  1.600389151263E-02  1.493619854914E-02
  1.392642151111E-02  1.297246449038E-02  1.207222944385E-02  1.122362245512E-02
  1.042455975927E-02  9.672973502109E-03  8.966817206232E-03  8.304070918406E-03
  7.682746015037E-03  7.100889645908E-03  6.556588799941E-03  6.047973980793E-03
  5.573222484339E-03  5.130561274436E-03  4.718269457633E-03  4.334680361624E-03
  3.978183226102E-03  3.647224518200E-03  3.340308887858E-03  3.055999781116E-03
  2.792919731609E-03  2.549750352270E-03  2.325232050618E-03  2.118163491805E-03
  1.927400834037E-03  1.751856761198E-03  1.590499337051E-03  1.442350704836E-03
  1.306485655324E-03  1.182030085261E-03  1.068159366881E-03  9.640966477773E-04
  8.691110989734E-04  7.825161274364E-04  7.036675677382E-04  6.319618659695E-04
  5.668342674729E-04  5.077570184651E-04  4.542375902009E-04  4.058169329984E-04
  3.620677662205E-04  3.225929091922E-04  2.870236570336E-04  2.550182045087E-04
  2.262601202208E-04  2.004568728341E-04  1.773384104417E-04  1.566557937451E-04
  1.381798833303E-04  1.217000810208E-04  1.070231250436E-04  9.397193854832E-05
  8.238453086562E-05  7.211295076618E-05  6.302229087893E-05  5.498974234361E-05
  4.790369869756E-05  4.166290793024E-05  3.617567157655E-05  3.135908966051E-05
  2.713835024319E-05  2.344606227280E-05  2.022163038095E-05  1.741067021795E-05
  1.496446287243E-05  1.283944687751E-05  1.099674626865E-05  9.401733127347E-06
  8.023623021086E-06  6.835101734668E-06  5.811981680025E-06  4.932886372838E-06
  4.178961373403E-06  3.533610106630E-06  2.982253001310E-06  2.512108421331E-06
  2.111993900736E-06  1.772146239746E-06  1.484059069273E-06  1.240336546342E-06
  1.034561901241E-06  8.611796185357E-07  7.153900973299E-07  5.930557007302E-07
  4.906171696195E-07  4.050194409183E-07  3.336459749716E-07  2.742607600008E-07
  2.249572232751E-07  1.841133384039E-07  1.503522756212E-07  1.225079968734E-07
  9.959524974321E-08  8.078346361345E-08  6.537409790076E-08  5.278103563711E-08
  4.251365613988E-08  3.416225802272E-08  2.738553842015E-08  2.189986611476E-08
  1.747011537202E-08  1.390185382480E-08  1.103470184059E-08  8.736702588916E-09
  6.899561651425E-09  5.434632629282E-09  4.269540951336E-09  3.345352116941E-09
  2.614203062723E-09  2.037326360287E-09  1.583406663561E-09  1.227217355272E-09
  9.484928095088E-10  7.309982015629E-10  5.617644594224E-10  4.304608578798E-10
  3.288819927296E-10  2.505295181318E-10  1.902721566266E-10  1.440701633661E-10
  1.087527021273E-10  8.183852271398E-11  6.139196381849E-11  4.590768340960E-11
  3.421867648867E-11  2.542310946080E-11  1.882630923285E-11  1.389491771776E-11
  1.022077970261E-11  7.492592164721E-12  5.473721685734E-12  3.984906965348E-12
  2.890816951360E-12  2.089641440882E-12  1.505058335502E-12  1.080056927428E-12
  7.722054203105E-13  5.500381625891E-13  3.903077973602E-13  2.759030271173E-13
  1.942766896622E-13  1.362635893250E-13  9.519486275232E-14  6.623707727059E-14
  4.590097576474E-14  3.167777510989E-14  2.177098344997E-14  1.489945591211E-14
  1.015336157581E-14  6.889285810740E-15  4.654156828985E-15  3.130311552305E-15
  2.095997954392E-15  1.397100358762E-15  9.269882904753E-16  6.122191845899E-16
  4.024403523879E-16  2.632895183967E-16  1.714266545989E-16  1.110735945448E-16
  7.161527486430E-17  4.594488988092E-17  2.932780277811E-17  1.862543094857E-17
  1.176768504702E-17  7.396167470892E-18  4.624089108941E-18  2.875556106458E-18
  1.778548815840E-18  1.094031400814E-18  6.692451830255E-19  4.071020169916E-19
  2.462376693599E-19  1.480843966068E-19  8.853961325266E-20  5.262704104394E-20
  3.109514999763E-20  0.000000000000E+00  0.000000000000E+00  0.000000000000E+00
  0.000000000000E+00  0.000000000000E+00  0.000000000000E+00  0.000000000000E+00
  0.000000000000E+00  0.000000000000E+00  0.000000000000E+00  0.000000000000E+00
  0.000000000000E+00  0.000000000000E+00  0.000000000000E+00  0.000000000000E+00
  0.000000000000E+00  0.000000000000E+00  0.000000000000E+00  0.000000000000E+00
  0.000000000000E+00  0.000000000000E+00  0.000000000000E+00  0.000000000000E+00
  0.000000000000E+00
</data>
</radfunc>
</valence-charge>
<semilocal-potentials set="scalar_relativistic">
<slps n="1" l="s" rc="1.35684192215" eref="-3.87537258564">
<radfunc>
<data npts="256">
 -1.674809488157E+01 -1.674749440150E+01 -1.674569936682E+01 -1.674270441422E+01
 -1.673853991866E+01 -1.673306317442E+01 -1.672608167821E+01 -1.671808523707E+01
 -1.670909148869E+01 -1.669859983456E+01 -1.668676934803E+01 -1.667390483043E+01
 -1.665834945141E+01 -1.664209413223E+01 -1.662290618802E+01 -1.660372996019E+01
 -1.658163150042E+01 -1.656066790334E+01 -1.653708114512E+01 -1.651054723678E+01
 -1.648070319833E+01 -1.645417313517E+01 -1.642503526044E+01 -1.639303787157E+01
 -1.635790580155E+01 -1.631933836624E+01 -1.627700715020E+01 -1.624257428047E+01
 -1.620566008085E+01 -1.616609036375E+01 -1.612367926409E+01 -1.607822851220E+01
 -1.602952666540E+01 -1.597734829614E+01 -1.592145313403E+01 -1.586158515949E+01
 -1.579747164628E+01 -1.572882215027E+01 -1.568038392983E+01 -1.562969619934E+01
 -1.557665837986E+01 -1.552116564505E+01 -1.546310875520E+01 -1.540237388571E+01
 -1.533884245010E+01 -1.527239091742E+01 -1.520289062442E+01 -1.513020758259E+01
 -1.505420228054E+01 -1.497472948215E+01 -1.489163802127E+01 -1.480477059384E+01
 -1.471396354867E+01 -1.461904667850E+01 -1.451984301304E+01 -1.441616861668E+01
 -1.430783239364E+01 -1.419463590433E+01 -1.407637319722E+01 -1.395283066166E+01
 -1.382378690784E+01 -1.368901268152E+01 -1.354827082213E+01 -1.340131627428E+01
 -1.324789616400E+01 -1.308774995233E+01 -1.292060967939E+01 -1.283433108676E+01
 -1.274620031301E+01 -1.265618195054E+01 -1.256424021499E+01 -1.247033896709E+01
 -1.237444173660E+01 -1.227651174856E+01 -1.217651195163E+01 -1.207440504873E+01
 -1.197015352955E+01 -1.186371970514E+01 -1.175506574416E+01 -1.164415371076E+01
 -1.153094560375E+01 -1.141540339691E+01 -1.129748908020E+01 -1.117716470164E+01
 -1.105439240997E+01 -1.092913449799E+01 -1.080135344716E+01 -1.067101197403E+01
 -1.053807307985E+01 -1.040250010515E+01 -1.026425679213E+01 -1.012330735842E+01
 -9.979616587407E+00 -9.833149941270E+00 -9.683873704943E+00 -9.531755170640E+00
 -9.376762874608E+00 -9.218866899533E+00 -9.058039257756E+00 -8.894254371892E+00
 -8.727489670461E+00 -8.557726316531E+00 -8.384950087007E+00 -8.209152418864E+00
 -8.030331636299E+00 -7.848494369253E+00 -7.663657169256E+00 -7.475848322992E+00
 -7.285109857661E+00 -7.091499725486E+00 -6.895094147792E+00 -6.695990092627E+00
 -6.494307854153E+00 -6.290193697729E+00 -6.083822531954E+00 -5.875400568483E+00
 -5.665167932332E+00 -5.453401189838E+00 -5.240415768428E+00 -5.026568251704E+00
 -4.812258544825E+00 -4.597931918319E+00 -4.384080952803E+00 -4.171247421815E+00
 -3.960024164078E+00 -3.751057008254E+00 -3.545046819342E+00 -3.342751731059E+00
 -3.144989602699E+00 -2.952640676115E+00 -2.766650282360E+00 -2.588031219757E+00
 -2.417865043854E+00 -2.257300914884E+00 -2.107549791619E+00 -1.969870650091E+00
 -1.845544192584E+00 -1.735828622751E+00 -1.641892349778E+00 -1.564721286101E+00
 -1.505005250409E+00 -1.463019608209E+00 -1.438532749300E+00 -1.430780827313E+00
 -1.438547761581E+00 -1.460361776638E+00 -1.494772375767E+00 -1.540624231568E+00
 -1.597227145112E+00 -1.664351452657E+00 -1.742044049985E+00 -1.830326796859E+00
 -1.928873728326E+00 -2.036755449389E+00 -2.152300594999E+00 -2.273078215319E+00
 -2.395971113351E+00 -2.517297158617E+00 -2.632940744911E+00 -2.738471036990E+00
 -2.829238775863E+00 -2.900454272246E+00 -2.947255060728E+00 -2.964773186660E+00
 -2.948211831321E+00 -2.913070483386E+00 -2.878528999682E+00 -2.844396154478E+00
 -2.810668118822E+00 -2.777340025698E+00 -2.744407059527E+00 -2.711864579000E+00
 -2.679707956661E+00 -2.647932624567E+00 -2.616534066819E+00 -2.585507819882E+00
 -2.554849472185E+00 -2.524554663692E+00 -2.494619085450E+00 -2.465038479105E+00
 -2.435808636398E+00 -2.406925398644E+00 -2.378384656283E+00 -2.350182348205E+00
 -2.322314461218E+00 -2.294777029823E+00 -2.267566135391E+00 -2.240677905593E+00
 -2.214108514057E+00 -2.187854179745E+00 -2.161911166445E+00 -2.136275782249E+00
 -2.110944379036E+00 -2.085913351956E+00 -2.061179138927E+00 -2.036738220120E+00
 -2.012587117471E+00 -1.988722394177E+00 -1.965140654213E+00 -1.941838541842E+00
 -1.918812741141E+00 -1.896059975526E+00 -1.873577007282E+00 -1.851360637105E+00
 -1.829407703639E+00 -1.807715083032E+00 -1.786279688481E+00 -1.765098469800E+00
 -1.744168412978E+00 -1.723486539752E+00 -1.703049907183E+00 -1.682855607232E+00
 -1.662900766351E+00 -1.643182545067E+00 -1.623698137584E+00 -1.604444771379E+00
 -1.585419706805E+00 -1.566620236707E+00 -1.548043686033E+00 -1.529687411450E+00
 -1.511548800974E+00 -1.493625273595E+00 -1.475914278909E+00 -1.458413296755E+00
 -1.441119836859E+00 -1.424031438478E+00 -1.407145670048E+00 -1.390460128842E+00
 -1.373972440626E+00 -1.357680259322E+00 -1.341581266670E+00 -1.325673171908E+00
 -1.309953711434E+00 -1.294420648492E+00 -1.279071772852E+00 -1.263904900492E+00
 -1.248917873290E+00 -1.234108558714E+00 -1.219474849514E+00 -1.205014663463E+00
 -1.190725942972E+00 -1.176606654805E+00 -1.162654789952E+00 -1.148868363178E+00
 -1.135245412729E+00 -1.121784000144E+00 -1.108482209931E+00 -1.095338149303E+00
 -1.082349947905E+00 -1.069515757551E+00 -1.056833751959E+00 -1.044302126495E+00
 -1.031919097916E+00 -1.019682904116E+00 -1.007591803883E+00 -9.956440766463E-01
</data>
</radfunc>
</slps>
<slps n="2" l="p" rc="1.10779790854" eref="-0.624206063745E-08">
<radfunc>
<data npts="256">
 -1.204382292085E+01 -1.204338701864E+01 -1.204208374499E+01 -1.203990849201E+01
 -1.203688215338E+01 -1.203289930666E+01 -1.202781740581E+01 -1.202199019875E+01
 -1.201542795901E+01 -1.200776178632E+01 -1.199910324008E+01 -1.198967108147E+01
 -1.197824281960E+01 -1.196627349265E+01 -1.195210992167E+01 -1.193791779605E+01
 -1.192151752118E+01 -1.190591521238E+01 -1.188830994365E+01 -1.186844198072E+01
 -1.184601753458E+01 -1.182601543617E+01 -1.180397546785E+01 -1.177968817254E+01
 -1.175292260624E+01 -1.172342427076E+01 -1.169091291437E+01 -1.166436775178E+01
 -1.163581375570E+01 -1.160509950518E+01 -1.157206278641E+01 -1.153653002897E+01
 -1.149831576928E+01 -1.145722215900E+01 -1.141303854056E+01 -1.136554111674E+01
 -1.131449274675E+01 -1.125964290760E+01 -1.122083471479E+01 -1.118013870461E+01
 -1.113747111458E+01 -1.109274586753E+01 -1.104587473138E+01 -1.099676751959E+01
 -1.094533233694E+01 -1.089147587542E+01 -1.083510376501E+01 -1.077612098423E+01
 -1.071443233515E+01 -1.064994298719E+01 -1.058255909374E+01 -1.051218848473E+01
 -1.043874143761E+01 -1.036213152765E+01 -1.028227655721E+01 -1.019909956147E+01
 -1.011252988614E+01 -1.002250432937E+01 -9.928968337779E+00 -9.831877242134E+00
 -9.731197515024E+00 -9.626908028175E+00 -9.519001282888E+00 -9.407484582413E+00
 -9.292381110579E+00 -9.173730876701E+00 -9.051591482789E+00 -8.989236300790E+00
 -8.926038665711E+00 -8.862010922192E+00 -8.797166564194E+00 -8.731520224616E+00
 -8.665087658547E+00 -8.597885719728E+00 -8.529932329804E+00 -8.461246439965E+00
 -8.391847984543E+00 -8.321757826184E+00 -8.250997692208E+00 -8.179590101798E+00
 -8.107558283693E+00 -8.034926084115E+00 -7.961717864739E+00 -7.887958390622E+00
 -7.813672708138E+00 -7.738886013207E+00 -7.663623510354E+00 -7.587910263490E+00
 -7.511771039802E+00 -7.435230148690E+00 -7.358311278423E+00 -7.281037334054E+00
 -7.203430281128E+00 -7.125511000858E+00 -7.047299163714E+00 -6.968813129656E+00
 -6.890069884553E+00 -6.811085023529E+00 -6.731872792929E+00 -6.652446203188E+00
 -6.572817224951E+00 -6.492997080081E+00 -6.412996637710E+00 -6.332826922870E+00
 -6.252499741626E+00 -6.172028421805E+00 -6.091428662580E+00 -6.010719479372E+00
 -5.929924223139E+00 -5.849071645457E+00 -5.768196973358E+00 -5.687342951237E+00
 -5.606560801866E+00 -5.525911055341E+00 -5.445464194135E+00 -5.365301065057E+00
 -5.285513015061E+00 -5.206201718085E+00 -5.127478674402E+00 -5.049464382513E+00
 -4.972287206246E+00 -4.896081986147E+00 -4.820988474014E+00 -4.747149701854E+00
 -4.674710430381E+00 -4.603815855534E+00 -4.534610780853E+00 -4.467239482821E+00
 -4.401846494983E+00 -4.338578497455E+00 -4.277587394184E+00 -4.219034450868E+00
 -4.163094998331E+00 -4.109962617320E+00 -4.059850860540E+00 -4.012989442369E+00
 -3.969610584638E+00 -3.929920272311E+00 -3.894049397314E+00 -3.861982488796E+00
 -3.833468475016E+00 -3.807929424413E+00 -3.784397547351E+00 -3.761521421859E+00
 -3.737678833565E+00 -3.711206750423E+00 -3.680711442613E+00 -3.645374237206E+00
 -3.605977639225E+00 -3.563689078783E+00 -3.519078911030E+00 -3.473043286677E+00
 -3.426554656322E+00 -3.380464928845E+00 -3.335386795048E+00 -3.291661831038E+00
 -3.249395297017E+00 -3.208525292909E+00 -3.168896805705E+00 -3.130322146961E+00
 -3.092620978581E+00 -3.055641262310E+00 -3.019266331112E+00 -2.983413282610E+00
 -2.948026287816E+00 -2.913070483386E+00 -2.878528999682E+00 -2.844396154478E+00
 -2.810668118822E+00 -2.777340025698E+00 -2.744407059527E+00 -2.711864579000E+00
 -2.679707956661E+00 -2.647932624567E+00 -2.616534066819E+00 -2.585507819882E+00
 -2.554849472185E+00 -2.524554663692E+00 -2.494619085450E+00 -2.465038479105E+00
 -2.435808636398E+00 -2.406925398644E+00 -2.378384656283E+00 -2.350182348205E+00
 -2.322314461218E+00 -2.294777029823E+00 -2.267566135391E+00 -2.240677905593E+00
 -2.214108514057E+00 -2.187854179745E+00 -2.161911166445E+00 -2.136275782249E+00
 -2.110944379036E+00 -2.085913351956E+00 -2.061179138927E+00 -2.036738220120E+00
 -2.012587117471E+00 -1.988722394177E+00 -1.965140654213E+00 -1.941838541842E+00