<?xml version="1.0" encoding="UTF-8" ?>
<psml version="1.1" energy_unit="hartree" length_unit="bohr"
 uuid="e41d9840-1d64-11e8-5e60-0dcdfb7de650"
 xmlns="http://esl.cecam.org/PSML/ns/1.1">
<provenance creator="ONCVPSP-3.3.0+psml-3.3.0-73 (scalar-relativistic)"
 date="2018-03-01">
<annotation action="semilocal-pseudopotential-generation"
 action-cont="projectors-generation" />
<input-file name="oncvpsp-input">
<![CDATA[# atsym z nc nv iexc psfile
Be 4 0 2 -116133 upf
# n l f
1 0 2.0
2 0 2.0
# lmax
1
# l rc ep ncon nbas qcut
0 1.2 0.0 4 7 10.4
1 1.05 0.0 4 7 10.0
# lloc lpopt rc5 dvloc0
4 5 0.95 0.0
# l nproj debl
0 2 1.0
1 2 1.0
# icmod fcfact
0 0.25
# epsh1 epsh2 depsh
-12.0 12.0 0.02
# rlmax drl
4.0 0.01
 0
]]>
</input-file>
</provenance>
<pseudo-atom-spec atomic-label="Be" atomic-number="4" z-pseudo="4"
 flavor="Hamann&apos;s oncvpsp" relativity="scalar" spin-dft="no"
 core-corrections="no">
<annotation pseudo-energy="-13.9218549515" />
<exchange-correlation>
<annotation oncvpsp-xc-code="-116133" oncvpsp-xc-type="libxc-interface" />
<libxc-info number-of-functionals="2">
<functional name="Perdew, Burke &amp; Ernzerhof SOL (GGA)" type="exchange"
 id="116" />
<functional name="Perdew, Burke &amp; Ernzerhof SOL (GGA)" type="correlation"
 id="133" />
</libxc-info>
</exchange-correlation>
<valence-configuration total-valence-charge="4">
<shell n="1" l="s" occupation="2" />
<shell n="2" l="s" occupation="2" />
</valence-configuration>
</pseudo-atom-spec>
<grid npts="457">
<annotation type="sampled from oncvpsp log grid"
 recipe="r(i:1..N) = r1*exp(a*(i-1)) + r=0; resampled"
 recipe-cont="r1: scale; a: step" scale="0.125000000000E-03"
 step="0.119285708653E-01" delta="0.500000000000E-02" rmax="44.1813421228" />
<grid-data>
  0.000000000000E+00  5.045089664318E-03  1.007717068006E-02  1.511736293017E-02
  2.012835760545E-02  2.524864506191E-02  3.055809503800E-02  3.568395144868E-02
  4.068727247651E-02  4.584201536434E-02  5.103737331347E-02  5.614775742254E-02
  6.176984548592E-02  6.714908551389E-02  7.299677779476E-02  7.841276441878E-02
  8.423058948002E-02  8.940718115625E-02  9.490191261456E-02  1.007343358937E-01
  1.069252046495E-01  1.121507391337E-01  1.176316503622E-01  1.233804188347E-01
  1.294101349845E-01  1.357345289867E-01  1.423680020228E-01  1.475549990844E-01
  1.529309777861E-01  1.585028234335E-01  1.642776721897E-01  1.702629202147E-01
  1.764662331383E-01  1.828955558777E-01  1.895591228129E-01  1.964654683334E-01
  2.036234377681E-01  2.110421987141E-01  2.161376015599E-01  2.213560278119E-01
  2.267004477474E-01  2.321739033578E-01  2.377795100805E-01  2.435204585719E-01
  2.494000165237E-01  2.554215305226E-01  2.615884279555E-01  2.679042189601E-01
  2.743724984227E-01  2.809969480246E-01  2.877813383377E-01  2.947295309705E-01
  3.018454807663E-01  3.091332380539E-01  3.165969509535E-01  3.242408677373E-01
  3.320693392479E-01  3.400868213747E-01  3.482978775900E-01  3.567071815465E-01
  3.653195197378E-01  3.741397942224E-01  3.831730254141E-01  3.924243549397E-01
  4.018990485653E-01  4.116024991939E-01  4.215402299344E-01  4.265987126936E-01
  4.317178972460E-01  4.368985120129E-01  4.421412941571E-01  4.474469896869E-01
  4.528163535632E-01  4.582501498060E-01  4.637491516036E-01  4.693141414229E-01
  4.749459111199E-01  4.806452620534E-01  4.864130051980E-01  4.922499612604E-01
  4.981569607955E-01  5.041348443251E-01  5.101844624570E-01  5.163066760065E-01
  5.225023561185E-01  5.287723843920E-01  5.351176530047E-01  5.415390648407E-01
  5.480375336188E-01  5.546139840222E-01  5.612693518305E-01  5.680045840525E-01
  5.748206390611E-01  5.817184867298E-01  5.886991085706E-01  5.957634978734E-01
  6.029126598479E-01  6.101476117661E-01  6.174693831073E-01  6.248790157046E-01
  6.323775638930E-01  6.399660946597E-01  6.476456877956E-01  6.554174360492E-01
  6.632824452818E-01  6.712418346252E-01  6.792967366407E-01  6.874482974804E-01
  6.956976770501E-01  7.040460491747E-01  7.124946017648E-01  7.210445369860E-01
  7.296970714298E-01  7.384534362870E-01  7.473148775224E-01  7.562826560527E-01
  7.653580479253E-01  7.745423445004E-01  7.838368526344E-01  7.932428948661E-01
  8.027618096044E-01  8.123949513197E-01  8.221436907355E-01  8.320094150244E-01
  8.419935280047E-01  8.520974503407E-01  8.623226197448E-01  8.726704911817E-01
  8.831425370759E-01  8.937402475208E-01  9.044651304911E-01  9.153187120570E-01
  9.263025366017E-01  9.374181670409E-01  9.486671850454E-01  9.600511912659E-01
  9.715718055611E-01  9.832306672278E-01  9.950294352346E-01  1.006969788457E+00
  1.019053425919E+00  1.031282067030E+00  1.043657451834E+00  1.056181341256E+00
  1.068855517351E+00  1.081681783560E+00  1.094661964962E+00  1.107797908542E+00
  1.121091483444E+00  1.134544581246E+00  1.148159116221E+00  1.161937025615E+00
  1.175880269923E+00  1.189990833162E+00  1.204270723160E+00  1.218721971838E+00
  1.233346635500E+00  1.248146795126E+00  1.263124556667E+00  1.278282051347E+00
  1.293621435963E+00  1.309144893195E+00  1.324854631913E+00  1.340752887496E+00
  1.356841922146E+00  1.373124025212E+00  1.389601513514E+00  1.406276731677E+00
  1.423152052457E+00  1.440229877086E+00  1.457512635611E+00  1.475002787239E+00
  1.492702820685E+00  1.510615254534E+00  1.528742637588E+00  1.547087549239E+00
  1.565652599830E+00  1.584440431028E+00  1.603453716200E+00  1.622695160795E+00
  1.642167502724E+00  1.661873512757E+00  1.681815994910E+00  1.701997786849E+00
  1.722421760291E+00  1.743090821415E+00  1.764007911272E+00  1.785176006207E+00
  1.806598118281E+00  1.828277295701E+00  1.850216623249E+00  1.872419222728E+00
  1.894888253401E+00  1.917626912442E+00  1.940638435391E+00  1.963926096616E+00
  1.987493209775E+00  2.011343128292E+00  2.035479245832E+00  2.059904996782E+00
  2.084623856743E+00  2.109639343024E+00  2.134955015140E+00  2.160574475322E+00
  2.186501369026E+00  2.212739385454E+00  2.239292258080E+00  2.266163765177E+00
  2.293357730359E+00  2.320878023123E+00  2.348728559401E+00  2.376913302113E+00
  2.405436261739E+00  2.434301496880E+00  2.463513114842E+00  2.493075272220E+00
  2.522992175487E+00  2.553268081593E+00  2.583907298572E+00  2.614914186155E+00
  2.646293156389E+00  2.678048674265E+00  2.710185258356E+00  2.742707481457E+00
  2.775619971234E+00  2.808927410889E+00  2.842634539820E+00  2.876746154297E+00
  2.911267108149E+00  2.946202313447E+00  2.981556741208E+00  3.017335422103E+00
  3.053543447168E+00  3.090185968534E+00  3.127268200156E+00  3.164795418558E+00
  3.202772963581E+00  3.241206239144E+00  3.280100714014E+00  3.319461922582E+00
  3.359295465653E+00  3.399607011241E+00  3.440402295375E+00  3.481687122920E+00
  3.523467368395E+00  3.565748976816E+00  3.608537964538E+00  3.651840420112E+00
  3.695662505153E+00  3.740010455215E+00  3.784890580678E+00  3.830309267646E+00
  3.876272978858E+00  3.922788254604E+00  3.969861713659E+00  4.017500054223E+00
  4.065710054874E+00  4.114498575532E+00  4.163872558439E+00  4.213839029140E+00
  4.264405097490E+00  4.315577958659E+00  4.367364894163E+00  4.419773272893E+00
  4.472810552168E+00  4.526484278794E+00  4.580802090140E+00  4.635771715221E+00
  4.691400975804E+00  4.747697787514E+00  4.804670160964E+00  4.862326202895E+00
  4.920674117330E+00  4.979722206738E+00  5.039478873219E+00  5.099952619697E+00
  5.161152051134E+00  5.223085875747E+00  5.285762906256E+00  5.349192061131E+00
  5.413382365865E+00  5.478342954255E+00  5.544083069706E+00  5.610612066543E+00
  5.677939411341E+00  5.746074684278E+00  5.815027580489E+00  5.884807911455E+00
  5.955425606392E+00  6.026890713669E+00  6.099213402233E+00  6.172403963060E+00
  6.246472810616E+00  6.321430484344E+00  6.397287650156E+00  6.474055101958E+00
  6.551743763181E+00  6.630364688340E+00  6.709929064600E+00  6.790448213375E+00
  6.871933591935E+00  6.954396795039E+00  7.037849556579E+00  7.122303751258E+00
  7.207771396273E+00  7.294264653028E+00  7.381795828865E+00  7.470377378811E+00
  7.560021907357E+00  7.650742170245E+00  7.742551076288E+00  7.835461689203E+00
  7.929487229474E+00  8.024641076228E+00  8.120936769142E+00  8.218388010372E+00
  8.317008666496E+00  8.416812770494E+00  8.517814523740E+00  8.620028298025E+00
  8.723468637602E+00  8.828150261253E+00  8.934088064388E+00  9.041297121160E+00
  9.149792686614E+00  9.259590198854E+00  9.370705281240E+00  9.483153744615E+00
  9.596951589550E+00  9.712115008625E+00  9.828660388728E+00  9.946604313393E+00
  1.006596356515E+01  1.018675512794E+01  1.030899618947E+01  1.043270414374E+01
  1.055789659347E+01  1.068459135259E+01  1.081280644882E+01  1.094256012621E+01
  1.107387084772E+01  1.120675729790E+01  1.134123838547E+01  1.147733324610E+01
  1.161506124505E+01  1.175444197999E+01  1.189549528375E+01  1.203824122715E+01
  1.218270012188E+01  1.232889252334E+01  1.247683923362E+01  1.262656130443E+01
  1.277808004008E+01  1.293141700056E+01  1.308659400457E+01  1.324363313262E+01
  1.340255673021E+01  1.356338741098E+01  1.372614805991E+01  1.389086183663E+01
  1.405755217867E+01  1.422624280481E+01  1.439695771847E+01  1.456972121109E+01
  1.474455786562E+01  1.492149256001E+01  1.510055047073E+01  1.528175707638E+01
  1.546513816130E+01  1.565071981923E+01  1.583852845706E+01  1.602859079855E+01
  1.622093388813E+01  1.641558509479E+01  1.661257211592E+01  1.681192298131E+01
  1.701366605709E+01  1.721783004978E+01  1.742444401037E+01  1.763353733850E+01
  1.784513978656E+01  1.805928146400E+01  1.827599284157E+01  1.849530475566E+01
  1.871724841273E+01  1.894185539369E+01  1.916915765841E+01  1.939918755031E+01
  1.963197780091E+01  1.986756153453E+01  2.010597227294E+01  2.034724394022E+01
  2.059141086750E+01  2.083850779791E+01  2.108856989148E+01  2.134163273018E+01
  2.159773232294E+01  2.185690511082E+01  2.211918797215E+01  2.238461822781E+01
  2.265323364655E+01  2.292507245031E+01  2.320017331971E+01  2.347857539955E+01
  2.376031830434E+01  2.404544212399E+01  2.433398742948E+01  2.462599527863E+01
  2.492150722198E+01  2.522056530864E+01  2.552321209235E+01  2.582949063745E+01
  2.613944452510E+01  2.645311785940E+01  2.677055527372E+01  2.709180193700E+01
  2.741690356025E+01  2.774590640297E+01  2.807885727980E+01  2.841580356716E+01
  2.875679320997E+01  2.910187472849E+01  2.945109722523E+01  2.980451039193E+01
  3.016216451664E+01  3.052411049083E+01  3.089039981672E+01  3.126108461453E+01
  3.163621762990E+01  3.201585224146E+01  3.240004246836E+01  3.278884297798E+01
  3.318230909371E+01  3.358049680284E+01  3.398346276447E+01  3.439126431764E+01
  3.480395948946E+01  3.522160700333E+01  3.564426628737E+01  3.607199748282E+01
  3.650486145261E+01  3.694291979004E+01  3.738623482752E+01  3.783486964545E+01
  3.828888808120E+01  3.874835473817E+01  3.921333499503E+01  3.968389501497E+01
  4.016010175515E+01  4.064202297621E+01  4.112972725193E+01  4.162328397895E+01
  4.212276338670E+01  4.262823654734E+01  4.313977538591E+01  4.365745269054E+01
  4.418134212282E+01
</grid-data>
</grid>
<valence-charge total-charge="4" is-unscreening-charge="yes"
 rescaled-to-z-pseudo="no">
<radfunc>
<data npts="457">
  7.464727739965E+01  7.463413620777E+01  7.459486187741E+01  7.452936978208E+01
  7.443837772101E+01  7.431884673212E+01  7.416669340888E+01  7.399272234508E+01
  7.379743871419E+01  7.357014546258E+01  7.331451223604E+01  7.303733498813E+01
  7.270329247577E+01  7.235551862913E+01  7.194671053967E+01  7.153999769589E+01
  7.107359236649E+01  7.063339883784E+01  7.014075091776E+01  6.958986634324E+01
  6.897445039085E+01  6.843109099135E+01  6.783834576044E+01  6.719227215095E+01
  6.648872661200E+01  6.572337985070E+01  6.489173941762E+01  6.422172595009E+01
  6.350983663110E+01  6.275406868269E+01  6.195241775449E+01  6.110289540410E+01
  6.020354952030E+01  5.925248794970E+01  5.824790557563E+01  5.718811507505E+01
  5.607158154291E+01  5.489696111941E+01  5.408105113128E+01  5.323856388323E+01
  5.236929957308E+01  5.147312722104E+01  5.054999188131E+01  4.959992212445E+01
  4.862303775069E+01  4.761955768435E+01  4.658980798906E+01  4.553422993147E+01
  4.445338800872E+01  4.334797784137E+01  4.221883381930E+01  4.106693637348E+01
  3.989341873156E+01  3.869957300012E+01  3.748685540206E+01  3.625689048389E+01
  3.501147409540E+01  3.375257493391E+01  3.248233443801E+01  3.120306481161E+01
  2.991724495976E+01  2.862751412369E+01  2.733666301459E+01  2.604762226548E+01
  2.476344804827E+01  2.348730474003E+01  2.222244456941E+01  2.159528031061E+01
  2.097218423134E+01  2.035357666587E+01  1.973987852536E+01  1.913151032150E+01
  1.852889115124E+01  1.793243764514E+01  1.734256288251E+01  1.675967527667E+01
  1.618417743436E+01  1.561646499347E+01  1.505692544395E+01  1.450593693681E+01
  1.396386708699E+01  1.343107177583E+01  1.290789395942E+01  1.239466248964E+01
  1.189169095449E+01  1.139927654523E+01  1.091769895752E+01  1.044721933422E+01
  9.988079257618E+00  9.540499798749E+00  9.104680631623E+00  8.680799220018E+00
  8.269010084326E+00  7.869444155707E+00  7.482208224472E+00  7.107384489172E+00
  6.745030212384E+00  6.395177488533E+00  6.057833128437E+00  5.732978664426E+00
  5.420570479046E+00  5.120540059392E+00  4.832794378078E+00  4.557216400782E+00
  4.293665719144E+00  4.041979306613E+00  3.801972393645E+00  3.573439457407E+00
  3.356155319955E+00  3.149876347641E+00  2.954341743364E+00  2.769274922210E+00
  2.594384959999E+00  2.429368103376E+00  2.273909329297E+00  2.127683941119E+00
  1.990359188027E+00  1.861595894202E+00  1.741050084003E+00  1.628374589492E+00
  1.523220626883E+00  1.425239328919E+00  1.334083220844E+00  1.249407628433E+00
  1.170872007570E+00  1.098141185988E+00  1.030886509129E+00  9.687868834348E-01
  9.115297119641E-01  8.588117187318E-01  8.103396598091E-01  7.658309208004E-01
  7.250140018746E-01  6.876288930180E-01  6.534273435563E-01  6.221730312433E-01
  5.936416372972E-01  5.676208346629E-01  5.439101974595E-01  5.223210400378E-01
  5.026761943309E-01  4.848097342040E-01  4.685666552952E-01  4.538025184159E-01
  4.403830639570E-01  4.281838039487E-01  4.170895974833E-01  4.069942141648E-01
  3.977998891536E-01  3.894168722805E-01  3.817629726683E-01  3.747630993925E-01
  3.683487979836E-01  3.624577820727E-01  3.570334592610E-01  3.520243617409E-01
  3.473832476103E-01  3.430661622406E-01  3.390321932037E-01  3.352434610467E-01
  3.316649084869E-01  3.282641643759E-01  3.250113995869E-01  3.218791903065E-01
  3.188423883989E-01  3.158779989787E-01  3.129650648585E-01  3.100845573109E-01
  3.072192725225E-01  3.043537331346E-01  3.014740943383E-01  2.985680540736E-01
  2.956247669615E-01  2.926347616748E-01  2.895898615151E-01  2.864831079620E-01
  2.833086871251E-01  2.800618588729E-01  2.767388885709E-01  2.733369813215E-01
  2.698542186121E-01  2.662894972908E-01  2.626424707949E-01  2.589134925631E-01
  2.551035615680E-01  2.512142699125E-01  2.472477524361E-01  2.432066382837E-01
  2.390940043932E-01  2.349133308618E-01  2.306684581541E-01  2.263635461178E-01
  2.220030347770E-01  2.175916068703E-01  2.131341521092E-01  2.086357331255E-01
  2.041015530842E-01  1.995369249325E-01  1.949472422612E-01  1.903379517491E-01
  1.857145271654E-01  1.810824449011E-01  1.764471610018E-01  1.718140896722E-01
  1.671885832236E-01  1.625759134328E-01  1.579812542808E-01  1.534096660404E-01
  1.488660806777E-01  1.443552885357E-01  1.398819262630E-01  1.354504659542E-01
  1.310652054644E-01  1.267302598619E-01  1.224495539804E-01  1.182268160333E-01
  1.140655722514E-01  1.099691425036E-01  1.059406368611E-01  1.019829530653E-01
  9.809877485741E-02  9.429057112869E-02  9.056059584997E-02  8.691088873815E-02
  8.334327661734E-02  7.985937543249E-02  7.646059287280E-02  7.314813156272E-02
  6.992299277820E-02  6.678598064633E-02  6.373770678694E-02  6.077859535556E-02
  5.790888844765E-02  5.512865182569E-02  5.243778093149E-02  4.983600714806E-02
  4.732290427723E-02  4.489789520105E-02  4.256025869771E-02  4.030913638496E-02
  3.814353976680E-02  3.606235735574E-02  3.406436188396E-02  3.214821752279E-02
  3.031248716067E-02  2.855563969670E-02  2.687605734539E-02  2.527204294400E-02
  2.374182725349E-02  2.228357624465E-02  2.089539835954E-02  1.957535173727E-02
  1.832145139096E-02  1.713167632050E-02  1.600397654302E-02  1.493628002021E-02
  1.392649945933E-02  1.297253896211E-02  1.207230049441E-02  1.122369014783E-02
  1.042462416461E-02  9.673034696787E-03  8.966875272410E-03  8.304125942883E-03
  7.682798088502E-03  7.100938862233E-03  6.556635255513E-03  6.048017773886E-03
  5.573263714532E-03  5.130600042075E-03  4.718305863333E-03  4.334714505813E-03
  3.978215208606E-03  3.647254437869E-03  3.340336842229E-03  3.056025866111E-03
  2.792944041275E-03  2.549772978544E-03  2.325253083132E-03  2.118183017712E-03
  1.927418937872E-03  1.751873524763E-03  1.590514839323E-03  1.442365021898E-03
  1.306498860313E-03  1.182042248344E-03  1.068170555236E-03  9.641069255998E-04
  8.691205274886E-04  7.825247649291E-04  7.036754695920E-04  6.319690847150E-04
  5.668408528452E-04  5.077630174685E-04  4.542430471799E-04  4.058218897140E-04
  3.620722619314E-04  3.225969807393E-04  2.870273389280E-04  2.550215290212E-04
  2.262631174742E-04  2.004595708955E-04  1.773408354159E-04  1.566579698681E-04
  1.381818330622E-04  1.217018251378E-04  1.070246827289E-04  9.397332748165E-05
  8.238576731083E-05  7.211404965651E-05  6.302326590014E-05  5.499060601441E-05
  4.790446244739E-05  4.166358217404E-05  3.617626578658E-05  3.135961243498E-05
  2.713880937178E-05  2.344646479888E-05  2.022198266058E-05  1.741097797567E-05
  1.496473125374E-05  1.283968049828E-05  1.099694926133E-05  9.401909184154E-06
  8.023775434272E-06  6.835233433876E-06  5.812095266917E-06  4.932984153089E-06
  4.179045386170E-06  3.533682151631E-06  2.982314663643E-06  2.512161094149E-06
  2.112038805926E-06  1.772184446716E-06  1.484091511999E-06  1.240364038777E-06
  1.034585151217E-06  8.611992402714E-07  7.154066226518E-07  5.930695891199E-07
  4.906288171812E-07  4.050291883646E-07  3.336541147160E-07  2.742675424412E-07
  2.249628623459E-07  1.841180164698E-07  1.503561477791E-07  1.225111947246E-07
  9.959788469261E-08  8.078562974743E-08  6.537587449138E-08  5.278248931520E-08
  4.251484277609E-08  3.416322435141E-08  2.738632343766E-08  2.190050228022E-08
  1.747062963586E-08  1.390226850735E-08  1.103503538056E-08  8.736970179433E-09
  6.899775778875E-09  5.434803528746E-09  4.269676990362E-09  3.345460118074E-09
  2.614288573810E-09  2.037393880372E-09  1.583459831141E-09  1.227259104736E-09
  9.485255007584E-10  7.310237271099E-10  5.617843326140E-10  4.304762853636E-10
  3.288939337982E-10  2.505387331749E-10  1.902792465722E-10  1.440756016871E-10
  1.087568607356E-10  8.184169284380E-11  6.139437281600E-11  4.590950818790E-11
  3.422005427631E-11  2.542414636020E-11  1.882708701264E-11  1.389549918555E-11
  1.022121294080E-11  7.492913858520E-12  5.473959729147E-12  3.985082494619E-12
  2.890945926194E-12  2.089735869661E-12  1.505127221256E-12  1.080106995580E-12
  7.722416764861E-13  5.500643186103E-13  3.903265953472E-13  2.759164851460E-13
  1.942862872528E-13  1.362704069581E-13  9.519968639796E-14  6.624047639439E-14
  4.590336130964E-14  3.167944241922E-14  2.177214391330E-14  1.490026020038E-14
  1.015391662986E-14  6.889667210070E-15  4.654417758546E-15  3.130489274916E-15
  2.096118462198E-15  1.397181701266E-15  9.270429450152E-16  6.122557371243E-16
  4.024646837934E-16  2.633056378742E-16  1.714372824167E-16  1.110805675763E-16
  7.161982745129E-17  4.594784740557E-17  2.932971441798E-17  1.862666026913E-17
  1.176847151135E-17  7.396667990221E-18  4.624405966036E-18  2.875755623156E-18
  1.778673767041E-18  1.094109225753E-18  6.692933873251E-19  4.071317071489E-19
  2.462558525340E-19  1.480954686496E-19  8.854631605876E-20  5.263107495169E-20
  3.109756326284E-20  0.000000000000E+00  0.000000000000E+00  0.000000000000E+00
  0.000000000000E+00  0.000000000000E+00  0.000000000000E+00  0.000000000000E+00
  0.000000000000E+00  0.000000000000E+00  0.000000000000E+00  0.000000000000E+00
  0.000000000000E+00  0.000000000000E+00  0.000000000000E+00  0.000000000000E+00
  0.000000000000E+00  0.000000000000E+00  0.000000000000E+00  0.000000000000E+00
  0.000000000000E+00  0.000000000000E+00  0.000000000000E+00  0.000000000000E+00
  0.000000000000E+00
</data>
</radfunc>
</valence-charge>
<semilocal-potentials set="scalar_relativistic">
<slps n="1" l="s" rc="1.20427072316" eref="-3.87537258564">
<radfunc>
<data npts="256">
 -1.870842884599E+01 -1.870753424565E+01 -1.870485987579E+01 -1.870039805139E+01
 -1.869419447762E+01 -1.868603722780E+01 -1.867564054487E+01 -1.866373488614E+01
 -1.865034747579E+01 -1.863473451671E+01 -1.861713446386E+01 -1.859800235413E+01
 -1.857487698309E+01 -1.855072094063E+01 -1.852221969166E+01 -1.849374943048E+01
 -1.846095714467E+01 -1.842986491121E+01 -1.839490036602E+01 -1.835558959026E+01
 -1.831140260154E+01 -1.827214639857E+01 -1.822905694335E+01 -1.818176875660E+01
 -1.812988301228E+01 -1.807296472101E+01 -1.801053970357E+01 -1.795979806540E+01
 -1.790543450449E+01 -1.784719888379E+01 -1.778482473613E+01 -1.771802829047E+01
 -1.764650744821E+01 -1.756994070834E+01 -1.748798604026E+01 -1.740027970399E+01
 -1.730643501809E+01 -1.720604107685E+01 -1.713525886428E+01 -1.706123653027E+01
 -1.698383265869E+01 -1.690290014287E+01 -1.681828599657E+01 -1.672983116449E+01
 -1.663737033328E+01 -1.654073174474E+01 -1.643973701323E+01 -1.633420094936E+01
 -1.622393139309E+01 -1.610872905951E+01 -1.598838740164E+01 -1.586269249509E+01
 -1.573142295093E+01 -1.559434986382E+01 -1.545123680427E+01 -1.530183986533E+01
 -1.514590777616E+01 -1.498318209699E+01 -1.481339751284E+01 -1.463628224611E+01
 -1.445155861155E+01 -1.425894374096E+01 -1.405815050875E+01 -1.384888869394E+01
 -1.363086641841E+01 -1.340379190592E+01 -1.316737561021E+01 -1.304557503822E+01
 -1.292133276516E+01 -1.279461443889E+01 -1.266538641360E+01 -1.253361587503E+01
 -1.239927097557E+01 -1.226232098009E+01 -1.212273642299E+01 -1.198048927729E+01
 -1.183555313662E+01 -1.168790341108E+01 -1.153751753816E+01 -1.138437521020E+01
 -1.122845862003E+01 -1.106975272701E+01 -1.090824554599E+01 -1.074392846235E+01
 -1.057679657682E+01 -1.040684908471E+01 -1.023408969469E+01 -1.005852709341E+01
 -9.880175462831E+00 -9.699055058261E+00 -9.515192855514E+00 -9.328623276441E+00
 -9.139389002196E+00 -8.947541883577E+00 -8.753143957210E+00 -8.556268575190E+00
 -8.357001653966E+00 -8.155443045680E+00 -7.951708031803E+00 -7.745928934725E+00
 -7.538256838046E+00 -7.328863400728E+00 -7.117942744158E+00 -6.905713384727E+00
 -6.692420178040E+00 -6.478336234438E+00 -6.263764759638E+00 -6.049040768990E+00
 -5.834532619607E+00 -5.620643301461E+00 -5.407811426819E+00 -5.196511857094E+00
 -4.987255907537E+00 -4.780591073154E+00 -4.577100223897E+00 -4.377400223504E+00
 -4.182139934319E+00 -3.991997580087E+00 -3.807677449818E+00 -3.629905938235E+00
 -3.459426931469E+00 -3.296996559405E+00 -3.143377346434E+00 -2.999331796786E+00
 -2.865615443494E+00 -2.742969362978E+00 -2.632112098400E+00 -2.533730829481E+00
 -2.448471458042E+00 -2.376927034179E+00 -2.319623627853E+00 -2.277002385020E+00
 -2.249396181540E+00 -2.236999171995E+00 -2.239827900625E+00 -2.257673863174E+00
 -2.290049832876E+00 -2.336135986093E+00 -2.394736345790E+00 -2.464259772253E+00
 -2.542740171965E+00 -2.627905199404E+00 -2.717290693483E+00 -2.808382247340E+00
 -2.898752173831E+00 -2.986156948928E+00 -3.068570288129E+00 -3.144146851830E+00
 -3.211132630120E+00 -3.267751795868E+00 -3.312102235546E+00 -3.342084552778E+00
 -3.355377975473E+00 -3.349462397155E+00 -3.321670757735E+00 -3.282116559620E+00
 -3.243205487874E+00 -3.204748527960E+00 -3.166748805601E+00 -3.129200205472E+00
 -3.092096307826E+00 -3.055432206603E+00 -3.019202627723E+00 -2.983402445940E+00
 -2.948026596469E+00 -2.913070076347E+00 -2.878527940541E+00 -2.844395299774E+00
 -2.810667319282E+00 -2.777339218156E+00 -2.744406268990E+00 -2.711863797649E+00
 -2.679707183122E+00 -2.647931857232E+00 -2.616533304358E+00 -2.585507061292E+00
 -2.554848716713E+00 -2.524553910741E+00 -2.494618334591E+00 -2.465037730043E+00
 -2.435807888953E+00 -2.406924652744E+00 -2.378383911885E+00 -2.350181605365E+00
 -2.322313720161E+00 -2.294776290712E+00 -2.267565398386E+00 -2.240677170948E+00
 -2.214107782034E+00 -2.187853450622E+00 -2.161910440511E+00 -2.136275059798E+00
 -2.110943660363E+00 -2.085912637353E+00 -2.061178428677E+00 -2.036737514502E+00
 -2.012586416749E+00 -1.988721698604E+00 -1.965139964026E+00 -1.941837857262E+00
 -1.918812062374E+00 -1.896059302759E+00 -1.873576340684E+00 -1.851359976826E+00
 -1.829407049811E+00 -1.807714435765E+00 -1.786279047868E+00 -1.765097835914E+00
 -1.744167785872E+00 -1.723485919460E+00 -1.703049293718E+00 -1.682855000591E+00
 -1.662900166508E+00 -1.643181951980E+00 -1.623697551191E+00 -1.604444191599E+00
 -1.585419133539E+00 -1.566619669839E+00 -1.548043125428E+00 -1.529686856958E+00
 -1.511548252427E+00 -1.493624730810E+00 -1.475913741688E+00 -1.458412764886E+00
 -1.441119310119E+00 -1.424030916630E+00 -1.407145152849E+00 -1.390459616040E+00
 -1.373971931963E+00 -1.357679754539E+00 -1.341580765510E+00 -1.325672674116E+00
 -1.309953216764E+00 -1.294420156711E+00 -1.279071283743E+00 -1.263904413861E+00
 -1.248917388969E+00 -1.234108076569E+00 -1.219474369446E+00 -1.205014185428E+00
 -1.190725466969E+00 -1.176606180863E+00 -1.162654318180E+00 -1.148867893758E+00
 -1.135244945891E+00 -1.121783536189E+00 -1.108481749227E+00 -1.095337692281E+00
 -1.082349495060E+00 -1.069515309436E+00 -1.056833309180E+00 -1.044301689702E+00
 -1.031918667797E+00 -1.019682481384E+00 -1.007591389267E+00 -9.956436708788E-01
</data>
</radfunc>
</slps>
<slps n="2" l="p" rc="1.05618134126" eref="-0.876927496254E-08">
<radfunc>
<data npts="256">
 -1.331623540100E+01 -1.331533456004E+01 -1.331264213702E+01 -1.330815220338E+01
 -1.330191372338E+01 -1.329371796598E+01 -1.328328437096E+01 -1.327135318284E+01
 -1.325795840163E+01 -1.324236535742E+01 -1.322482453378E+01 -1.320580098648E+01
 -1.318286820087E+01 -1.315898495641E+01 -1.313089955854E+01 -1.310294609664E+01
 -1.307087440945E+01 -1.304058908795E+01 -1.300667541160E+01 -1.296872701366E+01
 -1.292629924528E+01 -1.288880755739E+01 -1.284787249589E+01 -1.280320967236E+01
 -1.275451742021E+01 -1.270147697520E+01 -1.264375294975E+01 -1.259717563095E+01
 -1.254761294369E+01 -1.249490703884E+01 -1.243889630178E+01 -1.237941592070E+01
 -1.231629855575E+01 -1.224937511257E+01 -1.217847562223E+01 -1.210343022581E+01
 -1.202407025894E+01 -1.194022942614E+01 -1.188176564495E+01 -1.182119092427E+01
 -1.175845936839E+01 -1.169352640104E+01 -1.162634893650E+01 -1.155688554476E+01
 -1.148509660723E+01 -1.141094445910E+01 -1.133439351423E+01 -1.125541036769E+01
 -1.117396387125E+01 -1.109002517648E+01 -1.100356774029E+01 -1.091456728774E+01
 -1.082300172723E+01 -1.072885101381E+01 -1.063209695732E+01 -1.053272297334E+01
 -1.043071377681E+01 -1.032605502071E+01 -1.021873288498E+01 -1.010873362477E+01
 -9.996043091358E+00 -9.880646243980E+00 -9.762526676528E+00 -9.641666188600E+00
 -9.518044436418E+00 -9.391638704401E+00 -9.262423842567E+00 -9.196754494977E+00
 -9.130372417697E+00 -9.063273892481E+00 -8.995455126545E+00 -8.926912282993E+00
 -8.857641516988E+00 -8.787639017908E+00 -8.716901057701E+00 -8.645424045632E+00
 -8.573204589564E+00 -8.500239563963E+00 -8.426526184783E+00 -8.352062091498E+00
 -8.276845436564E+00 -8.200874982825E+00 -8.124150209481E+00 -8.046671427564E+00
 -7.968439906163E+00 -7.889458011011E+00 -7.809729357532E+00 -7.729258980851E+00
 -7.648053525825E+00 -7.566121460530E+00 -7.483473317028E+00 -7.400121963410E+00
 -7.316082911110E+00 -7.231374661068E+00 -7.146019091642E+00 -7.060041889872E+00
 -6.973473025983E+00 -6.886347268636E+00 -6.798704735555E+00 -6.710591470686E+00
 -6.622060035187E+00 -6.533170095373E+00 -6.443988986507E+00 -6.354592227244E+00
 -6.265063955944E+00 -6.175497257212E+00 -6.085994345329E+00 -5.996666570914E+00
 -5.907634218528E+00 -5.819026066293E+00 -5.730978683959E+00 -5.643635453484E+00
 -5.557145305917E+00 -5.471661180237E+00 -5.387338223520E+00 -5.304331767159E+00
 -5.222795130472E+00 -5.142877320430E+00 -5.064720713831E+00 -4.988458825228E+00
 -4.914214279068E+00 -4.842097116163E+00 -4.772203569949E+00 -4.704615443002E+00
 -4.639400192713E+00 -4.576611788103E+00 -4.516292315402E+00 -4.458474173519E+00
 -4.403182495753E+00 -4.350437148925E+00 -4.300253296796E+00 -4.252639102896E+00
 -4.207588775869E+00 -4.165069000431E+00 -4.124997127533E+00 -4.087210686191E+00
 -4.051430179860E+00 -4.017220839009E+00 -3.983963482106E+00 -3.950848357551E+00
 -3.916906300092E+00 -3.881086166213E+00 -3.842375511154E+00 -3.799945657240E+00
 -3.755068890787E+00 -3.709657839788E+00 -3.663990802344E+00 -3.618453766782E+00
 -3.573415063859E+00 -3.529154931779E+00 -3.485830822444E+00 -3.443479850744E+00
 -3.402048319808E+00 -3.361430983185E+00 -3.321497533758E+00 -3.282116559620E+00
 -3.243205487874E+00 -3.204748527960E+00 -3.166748805601E+00 -3.129200205472E+00
 -3.092096307826E+00 -3.055432206603E+00 -3.019202627723E+00 -2.983402445940E+00
 -2.948026596469E+00 -2.913070076347E+00 -2.878527940541E+00 -2.844395299774E+00
 -2.810667319282E+00 -2.777339218156E+00 -2.744406268990E+00 -2.711863797649E+00
 -2.679707183122E+00 -2.647931857232E+00 -2.616533304358E+00 -2.585507061292E+00
 -2.554848716713E+00 -2.524553910741E+00 -2.494618334591E+00 -2.465037730043E+00
 -2.435807888953E+00 -2.406924652744E+00 -2.378383911885E+00 -2.350181605365E+00
 -2.322313720161E+00 -2.294776290712E+00 -2.267565398386E+00 -2.240677170948E+00
 -2.214107782034E+00 -2.187853450622E+00 -2.161910440511E+00 -2.136275059798E+00
 -2.110943660363E+00 -2.085912637353E+00 -2.061178428677E+00 -2.036737514502E+00
 -2.012586416749E+00 -1.988721698604E+00 -1.965139964026E+00 -1.941837857262E+00