<?xml version="1.0" encoding="UTF-8" ?>
<psml version="1.1" energy_unit="hartree" length_unit="bohr"
 uuid="0a2f7b70-1d60-11e8-4adf-44f0dd9d8714"
 xmlns="http://esl.cecam.org/PSML/ns/1.1">
<provenance creator="ONCVPSP-3.3.0+psml-3.3.0-73 (scalar-relativistic)"
 date="2018-03-01">
<annotation action="semilocal-pseudopotential-generation"
 action-cont="projectors-generation" />
<input-file name="oncvpsp-input">
<![CDATA[# atsym z nc nv iexc psfile
Rb 37 6 3 -116133 upf
# n l f
1 0 2.0
2 0 2.0
2 1 6.0
3 0 2.0
3 1 6.0
3 2 10.0
4 0 2.0
4 1 6.0
5 0 1.0
# lmax
2
# l rc ep ncon nbas qcut
0 1.7 0.0 4 9 6.4
1 1.75 0.0 4 9 6.6
2 1.9 0.1 4 9 7.4
# lloc lpopt rc5 dvloc0
4 5 1.7 2.5
# l nproj debl
0 2 1.0
1 2 3.5
2 2 2.5
# icmod fcfact rcfact
3 7.0 1.25
# epsh1 epsh2 depsh
-12.0 12.0 0.02
# rlmax drl
6.0 0.01
 0
]]>
</input-file>
</provenance>
<pseudo-atom-spec atomic-label="Rb" atomic-number="37" z-pseudo="9"
 flavor="Hamann&apos;s oncvpsp" relativity="scalar" spin-dft="no"
 core-corrections="yes">
<annotation pseudo-energy="-24.2714801733" />
<exchange-correlation>
<annotation oncvpsp-xc-code="-116133" oncvpsp-xc-type="libxc-interface" />
<libxc-info number-of-functionals="2">
<functional name="Perdew, Burke &amp; Ernzerhof SOL (GGA)" type="exchange"
 id="116" />
<functional name="Perdew, Burke &amp; Ernzerhof SOL (GGA)" type="correlation"
 id="133" />
</libxc-info>
</exchange-correlation>
<valence-configuration total-valence-charge="9">
<shell n="4" l="s" occupation="2" />
<shell n="4" l="p" occupation="6" />
<shell n="5" l="s" occupation="1" />
</valence-configuration>
</pseudo-atom-spec>
<grid npts="458">
<annotation type="sampled from oncvpsp log grid"
 recipe="r(i:1..N) = r1*exp(a*(i-1)) + r=0; resampled"
 recipe-cont="r1: scale; a: step" scale="0.135135135135E-04"
 step="0.119285708653E-01" delta="0.500000000000E-02" rmax="44.4480804401" />
<grid-data>
  0.000000000000E+00  5.015364275536E-03  1.001779654873E-02  1.502829226536E-02
  2.024987958689E-02  2.540108002142E-02  3.074258501631E-02  3.589938802680E-02
  4.093291586519E-02  4.611877975066E-02  5.134550390486E-02  5.648674120200E-02
  6.214277179039E-02  6.755448818428E-02  7.256668482434E-02  7.795076075524E-02
  8.373430751356E-02  8.888039899844E-02  9.434275580343E-02  1.001408147677E-01
  1.062952072679E-01  1.114899531924E-01  1.169385711956E-01  1.226534682428E-01
  1.286476576391E-01  1.349347886622E-01  1.415291776427E-01  1.466856132050E-01
  1.520299169380E-01  1.575689335796E-01  1.633097572469E-01  1.692597405222E-01
  1.754265038697E-01  1.818179453957E-01  1.884422509637E-01  1.953079046791E-01
  2.024236997544E-01  2.097987497720E-01  2.148641307865E-01  2.200518103602E-01
  2.253647412695E-01  2.308059475827E-01  2.363785263812E-01  2.420856495221E-01
  2.479305654442E-01  2.539166010163E-01  2.600471634312E-01  2.663257421451E-01
  2.727559108634E-01  2.793413295753E-01  2.860857466366E-01  2.929930009034E-01
  3.000670239172E-01  3.073118421427E-01  3.147315792594E-01  3.223304585090E-01
  3.301128050992E-01  3.380830486655E-01  3.462457257925E-01  3.546054825961E-01
  3.631670773679E-01  3.719353832838E-01  3.809153911778E-01  3.901122123824E-01
  3.995310816382E-01  4.091773600733E-01  4.190565382549E-01  4.240852167139E-01
  4.291742393145E-01  4.343243301863E-01  4.395362221485E-01  4.448106568143E-01
  4.501483846961E-01  4.555501653124E-01  4.610167672962E-01  4.665489685037E-01
  4.721475561258E-01  4.778133267993E-01  4.835470867209E-01  4.893496517615E-01
  4.952218475827E-01  5.011645097536E-01  5.071784838707E-01  5.132646256771E-01
  5.194238011853E-01  5.256568867995E-01  5.319647694411E-01  5.383483466744E-01
  5.448085268345E-01  5.513462291565E-01  5.579623839064E-01  5.646579325132E-01
  5.714338277034E-01  5.782910336358E-01  5.852305260395E-01  5.922532923519E-01
  5.993603318602E-01  6.065526558425E-01  6.138312877126E-01  6.211972631651E-01
  6.286516303231E-01  6.361954498870E-01  6.438297952856E-01  6.515557528291E-01
  6.593744218630E-01  6.672869149254E-01  6.752943579045E-01  6.833978901993E-01
  6.915986648817E-01  6.998978488603E-01  7.082966230466E-01  7.167961825232E-01
  7.253977367135E-01  7.341025095540E-01  7.429117396687E-01  7.518266805447E-01
  7.608486007112E-01  7.699787839198E-01  7.792185293268E-01  7.885691516787E-01
  7.980319814989E-01  8.076083652769E-01  8.172996656602E-01  8.271072616481E-01
  8.370325487879E-01  8.470769393733E-01  8.572418626458E-01  8.675287649976E-01
  8.779391101775E-01  8.884743794997E-01  8.991360720537E-01  9.099257049183E-01
  9.208448133773E-01  9.318949511379E-01  9.430776905515E-01  9.543946228381E-01
  9.658473583122E-01  9.774375266119E-01  9.891667769313E-01  1.001036778254E+00
  1.013049219594E+00  1.025205810229E+00  1.037508279951E+00  1.049958379311E+00
  1.062557879863E+00  1.075308574421E+00  1.088212277314E+00  1.101270824642E+00
  1.114486074537E+00  1.127859907432E+00  1.141394226321E+00  1.155090957037E+00
  1.168952048521E+00  1.182979473104E+00  1.197175226781E+00  1.211541329502E+00
  1.226079825456E+00  1.240792783362E+00  1.255682296762E+00  1.270750484323E+00
  1.285999490135E+00  1.301431484017E+00  1.317048661825E+00  1.332853245767E+00
  1.348847484716E+00  1.365033654533E+00  1.381414058387E+00  1.397991027088E+00
  1.414766919413E+00  1.431744122446E+00  1.448925051915E+00  1.466312152538E+00
  1.483907898368E+00  1.501714793149E+00  1.519735370667E+00  1.537972195115E+00
  1.556427861456E+00  1.575104995793E+00  1.594006255743E+00  1.613134330812E+00
  1.632491942782E+00  1.652081846095E+00  1.671906828248E+00  1.691969710187E+00
  1.712273346709E+00  1.732820626870E+00  1.753614474392E+00  1.774657848085E+00
  1.795953742262E+00  1.817505187169E+00  1.839315249415E+00  1.861387032408E+00
  1.883723676797E+00  1.906328360919E+00  1.929204301250E+00  1.952354752865E+00
  1.975783009899E+00  1.999492406018E+00  2.023486314890E+00  2.047768150669E+00
  2.072341368477E+00  2.097209464898E+00  2.122375978477E+00  2.147844490219E+00
  2.173618624102E+00  2.199702047591E+00  2.226098472162E+00  2.252811653828E+00
  2.279845393674E+00  2.307203538398E+00  2.334889980859E+00  2.362908660629E+00
  2.391263564557E+00  2.419958727331E+00  2.448998232059E+00  2.478386210844E+00
  2.508126845374E+00  2.538224367518E+00  2.568683059929E+00  2.599507256648E+00
  2.630701343728E+00  2.662269759852E+00  2.694216996971E+00  2.726547600934E+00
  2.759266172145E+00  2.792377366211E+00  2.825885894606E+00  2.859796525341E+00
  2.894114083645E+00  2.928843452649E+00  2.963989574081E+00  2.999557448970E+00
  3.035552138357E+00  3.071978764018E+00  3.108842509186E+00  3.146148619296E+00
  3.183902402727E+00  3.222109231560E+00  3.260774542339E+00  3.299903836847E+00
  3.339502682889E+00  3.379576715084E+00  3.420131635665E+00  3.461173215293E+00
  3.502707293876E+00  3.544739781403E+00  3.587276658780E+00  3.630323978685E+00
  3.673887866429E+00  3.717974520826E+00  3.762590215076E+00  3.807741297657E+00
  3.853434193229E+00  3.899675403548E+00  3.946471508390E+00  3.993829166491E+00
  4.041755116489E+00  4.090256177887E+00  4.139339252022E+00  4.189011323046E+00
  4.239279458922E+00  4.290150812429E+00  4.341632622179E+00  4.393732213645E+00
  4.446457000208E+00  4.499814484211E+00  4.553812258022E+00  4.608458005118E+00
  4.663759501179E+00  4.719724615193E+00  4.776361310576E+00  4.833677646303E+00
  4.891681778058E+00  4.950381959395E+00  5.009786542908E+00  5.069903981423E+00
  5.130742829200E+00  5.192311743150E+00  5.254619484068E+00  5.317674917877E+00
  5.381487016891E+00  5.446064861094E+00  5.511417639427E+00  5.577554651100E+00
  5.644485306913E+00  5.712219130596E+00  5.780765760163E+00  5.850134949285E+00
  5.920336568677E+00  5.991380607501E+00  6.063277174791E+00  6.136036500888E+00
  6.209668938899E+00  6.284184966166E+00  6.359595185760E+00  6.435910327989E+00
  6.513141251925E+00  6.591298946948E+00  6.670394534311E+00  6.750439268723E+00
  6.831444539948E+00  6.913421874427E+00  6.996382936920E+00  7.080339532163E+00
  7.165303606549E+00  7.251287249828E+00  7.338302696826E+00  7.426362329188E+00
  7.515478677138E+00  7.605664421264E+00  7.696932394319E+00  7.789295583051E+00
  7.882767130047E+00  7.977360335608E+00  8.073088659635E+00  8.169965723551E+00
  8.268005312233E+00  8.367221375980E+00  8.467628032492E+00  8.569239568882E+00
  8.672070443708E+00  8.776135289033E+00  8.881448912501E+00  8.988026299451E+00
  9.095882615045E+00  9.205033206425E+00  9.315493604902E+00  9.427279528161E+00
  9.540406882499E+00  9.654891765089E+00  9.770750466270E+00  9.887999471865E+00
  1.000665546553E+01  1.012673533111E+01  1.024825615509E+01  1.037123522895E+01
  1.049569005170E+01  1.062163833232E+01  1.074909799230E+01  1.087808716821E+01
  1.100862421423E+01  1.114072770480E+01  1.127441643726E+01  1.140970943451E+01
  1.154662594772E+01  1.168518545909E+01  1.182540768460E+01  1.196731257682E+01
  1.211092032774E+01  1.225625137167E+01  1.240332638813E+01  1.255216630479E+01
  1.270279230045E+01  1.285522580805E+01  1.300948851775E+01  1.316560237996E+01
  1.332358960852E+01  1.348347268382E+01  1.364527435603E+01  1.380901764830E+01
  1.397472586008E+01  1.414242257040E+01  1.431213164125E+01  1.448387722094E+01
  1.465768374759E+01  1.483357595256E+01  1.501157886399E+01  1.519171781036E+01
  1.537401842409E+01  1.555850664518E+01  1.574520872492E+01  1.593415122962E+01
  1.612536104437E+01  1.631886537691E+01  1.651469176143E+01  1.671286806257E+01
  1.691342247932E+01  1.711638354907E+01  1.732178015166E+01  1.752964151348E+01
  1.773999721164E+01  1.795287717818E+01  1.816831170432E+01  1.838633144477E+01
  1.860696742211E+01  1.883025103117E+01  1.905621404354E+01  1.928488861207E+01
  1.951630727541E+01  1.975050296272E+01  1.998750899827E+01  2.022735910625E+01
  2.047008741552E+01  2.071572846451E+01  2.096431720608E+01  2.121588901256E+01
  2.147047968071E+01  2.172812543688E+01  2.198886294212E+01  2.225272929742E+01
  2.251976204899E+01  2.278999919358E+01  2.306347918390E+01  2.334024093411E+01
  2.362032382532E+01  2.390376771122E+01  2.419061292376E+01  2.448090027884E+01
  2.477467108219E+01  2.507196713518E+01  2.537283074080E+01  2.567730470969E+01
  2.598543236620E+01  2.629725755460E+01  2.661282464525E+01  2.693217854100E+01
  2.725536468349E+01  2.758242905969E+01  2.791341820841E+01  2.824837922691E+01
  2.858735977763E+01  2.893040809496E+01  2.927757299210E+01  2.962890386801E+01
  2.998445071442E+01  3.034426412300E+01  3.070839529247E+01  3.107689603598E+01
  3.144981878841E+01  3.182721661387E+01  3.220914321324E+01  3.259565293180E+01
  3.298680076698E+01  3.338264237619E+01  3.378323408470E+01  3.418863289372E+01
  3.459889648844E+01  3.501408324630E+01  3.543425224526E+01  3.585946327220E+01
  3.628977683147E+01  3.672525415344E+01  3.716595720329E+01  3.761194868973E+01
  3.806329207400E+01  3.852005157889E+01  3.898229219784E+01  3.945007970421E+01
  3.992348066066E+01  4.040256242859E+01  4.088739317773E+01  4.137804189586E+01
  4.187457839862E+01  4.237707333940E+01  4.288559821947E+01  4.340022539811E+01
  4.392102810288E+01  4.444808044012E+01
</grid-data>
</grid>
<valence-charge total-charge="9" is-unscreening-charge="yes"
 rescaled-to-z-pseudo="no">
<radfunc>
<data npts="458">
  4.023201585566E-02  4.034828601824E-02  4.069596367691E-02  4.127636709015E-02
  4.212882075685E-02  4.321790654159E-02  4.460818758679E-02  4.620328512436E-02
  4.800076299961E-02  5.010220508503E-02  5.247773229118E-02  5.506799481525E-02
  5.820991750468E-02  6.150470670288E-02  6.480976762686E-02  6.863365082984E-02
  7.305947933321E-02  7.727696361009E-02  8.204411774278E-02  8.743453951628E-02
  9.353214339144E-02  9.898331531968E-02  1.050033523760E-01  1.116537421791E-01
  1.190029791999E-01  1.271274128698E-01  1.361122014084E-01  1.434721677464E-01
  1.514134408027E-01  1.599839629987E-01  1.692358359140E-01  1.792256907442E-01
  1.900150891382E-01  2.016709557522E-01  2.142660435593E-01  2.278794325276E-01
  2.425970616925E-01  2.585122938764E-01  2.698375003046E-01  2.817720025386E-01
  2.943497389747E-01  3.076065260629E-01  3.215801460079E-01  3.363104351318E-01
  3.518393722175E-01  3.682111660105E-01  3.854723409063E-01  4.036718196752E-01
  4.228610018796E-01  4.430938364208E-01  4.644268864063E-01  4.869193842556E-01
  5.106332746589E-01  5.356332426685E-01  5.619867238330E-01  5.897638928785E-01
  6.190376269954E-01  6.498834393068E-01  6.823793775648E-01  7.166058825537E-01
  7.526456000607E-01  7.905831396208E-01  8.305047725348E-01  8.724980609205E-01
  9.166514087714E-01  9.630535251902E-01  1.011792789128E+00  1.037066198611E+00
  1.062956504122E+00  1.089474308270E+00  1.116630030699E+00  1.144433873359E+00
  1.172895783329E+00  1.202025413085E+00  1.231832078099E+00  1.262324711648E+00
  1.293511816715E+00  1.325401414875E+00  1.358000992033E+00  1.391317440922E+00
  1.425357000228E+00  1.460125190251E+00  1.495626744988E+00  1.531865540559E+00
  1.568844519873E+00  1.606565613474E+00  1.645029656495E+00  1.684236301683E+00
  1.724183928464E+00  1.764869548038E+00  1.806288704532E+00  1.848435372251E+00
  1.891301849121E+00  1.934878646418E+00  1.979154374970E+00  2.024115628022E+00
  2.069746861026E+00  2.116030268674E+00  2.162945659553E+00  2.210470328874E+00
  2.258578929792E+00  2.307243343933E+00  2.356432551823E+00  2.406112503988E+00
  2.456245993645E+00  2.506792531942E+00  2.557708226869E+00  2.608945667041E+00
  2.660453811684E+00  2.712177888258E+00  2.764059299276E+00  2.816035539990E+00
  2.868040128698E+00  2.920002551563E+00  2.971848223886E+00  3.023498469874E+00
  3.074870522975E+00  3.125877548925E+00  3.176428693610E+00  3.226429157874E+00
  3.275780301326E+00  3.324379777104E+00  3.372121699439E+00  3.418896845677E+00
  3.464592894183E+00  3.509094699302E+00  3.552284604199E+00  3.594042792040E+00
  3.634247675558E+00  3.672776324558E+00  3.709504930426E+00  3.744309306140E+00
  3.777065419720E+00  3.807649958477E+00  3.835940920817E+00  3.861818231791E+00
  3.885164378049E+00  3.905865057362E+00  3.923809837441E+00  3.938892818470E+00
  3.951013293531E+00  3.960076401016E+00  3.965993763132E+00  3.968684104836E+00
  3.968073847861E+00  3.964097675007E+00  3.956699060534E+00  3.945830763292E+00
  3.931455280104E+00  3.913545257918E+00  3.892083864235E+00  3.867065116305E+00
  3.838494170489E+00  3.806387573903E+00  3.770773481010E+00  3.731691838011E+00
  3.689194537767E+00  3.643345547390E+00  3.594221009636E+00  3.541909317677E+00
  3.486511160846E+00  3.428139536508E+00  3.366919720370E+00  3.302989184510E+00
  3.236497449283E+00  3.167605852201E+00  3.096487214316E+00  3.023325382572E+00
  2.948314625597E+00  2.871658860519E+00  2.793570690074E+00  2.714270232625E+00
  2.633983732899E+00  2.552941948353E+00  2.471378314950E+00  2.389526906608E+00
  2.307620214199E+00  2.225886782339E+00  2.144548754475E+00  2.063819388376E+00
  1.983900614058E+00  1.904980713754E+00  1.827232207806E+00  1.750810030889E+00
  1.675850078984E+00  1.602468396311E+00  1.530761648948E+00  1.460809011553E+00
  1.392675484575E+00  1.326416127763E+00  1.262077271670E+00  1.199696106850E+00
  1.139301419943E+00  1.080913941117E+00  1.024546766835E+00  9.702057865056E-01
  9.178901156627E-01  8.675925328873E-01  8.192999177734E-01  7.729936874343E-01
  7.286502292446E-01  6.862413277100E-01  6.457345835502E-01  6.070938232815E-01
  5.702794977816E-01  5.352490684595E-01  5.019573799768E-01  4.703570184421E-01
  4.403986543318E-01  4.120313694790E-01  3.852029676414E-01  3.598602682917E-01
  3.359493834116E-01  3.134159771827E-01  2.922055085794E-01  2.722634569607E-01
  2.535355308463E-01  2.359678601318E-01  2.195071720649E-01  2.041009513549E-01
  1.896975848368E-01  1.762464911466E-01  1.636982358977E-01  1.520046328757E-01
  1.411188317904E-01  1.309953931464E-01  1.215903508097E-01  1.128612628645E-01
  1.047672513705E-01  9.726903164346E-02  9.032893169303E-02  8.391090246267E-02
  7.798051952191E-02  7.250497686471E-02  6.745307346632E-02  6.279519324492E-02
  5.850327906339E-02  5.455080139003E-02  5.091272221645E-02  4.756545480565E-02
  4.448681981647E-02  4.165599832268E-02  3.905348221962E-02  3.666102249125E-02
  3.446157579755E-02  3.243924984129E-02  3.057924798239E-02  2.886781358907E-02
  2.729217464080E-02  2.584048912114E-02  2.450179174612E-02  2.326594255016E-02
  2.212357778469E-02  2.106606346670E-02  2.008545175112E-02  1.917444011098E-02
  1.832633312286E-02  1.753500650767E-02  1.679487299573E-02  1.610084958298E-02
  1.544832581454E-02  1.483313284873E-02  1.425151318801E-02  1.370009108477E-02
  1.317584371893E-02  1.267607329581E-02  1.219838022637E-02  1.174063753898E-02
  1.130096664079E-02  1.087771450863E-02  1.046943235061E-02  1.007485574485E-02
  9.692886233604E-03  9.322574329295E-03  8.963103873900E-03  8.613777682927E-03
  8.274004399497E-03  7.943286481085E-03  7.621209240672E-03  7.307430864619E-03
  7.001673330892E-03  6.703714153039E-03  6.413378877361E-03  6.130534262930E-03
  5.855082076623E-03  5.586953438324E-03  5.326103655035E-03  5.072507487335E-03
  4.826154797358E-03  4.587046534653E-03  4.355191024732E-03  4.130600534625E-03
  3.913288099877E-03  3.703264607421E-03  3.500536137812E-03  3.305101577570E-03
  3.116950517154E-03  2.936061451869E-03  2.762400301722E-03  2.595919262135E-03
  2.436555991090E-03  2.284233131749E-03  2.138858154217E-03  2.000323506373E-03
  1.868507042404E-03  1.743272698182E-03  1.624471378062E-03  1.511942015197E-03
  1.405512766881E-03  1.305002307337E-03  1.210221182427E-03  1.120973193736E-03
  1.037056783028E-03  9.582663919548E-04  8.843937759153E-04  8.152292549046E-04
  7.505628879511E-04  6.901855612254E-04  6.338899830481E-04  5.814715818061E-04
  5.327293051927E-04  4.874663212201E-04  4.454906231440E-04  4.066155417920E-04
  3.706601698561E-04  3.374497034976E-04  3.068157071770E-04  2.785963079740E-04
  2.526363258405E-04  2.287873462607E-04  2.069077416979E-04  1.868626480081E-04
  1.685239017243E-04  1.517699437748E-04  1.364856948057E-04  1.225624068630E-04
  1.098974957471E-04  9.839435791043E-05  8.796217532756E-05  7.851571134283E-05
  6.997510009514E-05  6.226563174583E-05  5.531753539253E-05  4.906576124625E-05
  4.344976338120E-05  3.841328413646E-05  3.390414105548E-05  2.987401708947E-05
  2.627825466238E-05  2.307565409286E-05  2.022827678922E-05  1.770125357168E-05
  1.546259842881E-05  1.348302797736E-05  1.173578686381E-05  1.019647931883E-05
  8.842907050602E-06  7.654913637333E-06  6.614235552976E-06  5.704359931979E-06
  4.910389148944E-06  4.218912257476E-06  3.617883299557E-06  3.096506463196E-06
  2.645128032342E-06  2.255135039987E-06  1.918860503521E-06  1.629495091454E-06
  1.381005043019E-06  1.168056137476E-06  9.859434882910E-07  8.305269191521E-07
  6.981716640016E-07  5.856941219492E-07  4.903123900519E-07  4.096012923004E-07
  3.414516215777E-07  2.840333125894E-07  2.357622675285E-07  1.952705622389E-07
  1.613797685538E-07  1.330771380229E-07  1.094944030756E-07  8.988896352810E-08
  7.362723894513E-08  6.016998046834E-08  4.905934909628E-08  3.990758084212E-08
  3.238707253448E-08  2.622173511145E-08  2.117947396571E-08  1.706566812870E-08
  1.371753175456E-08  1.099925242212E-08  8.797811174283E-09  7.019398933373E-09
  5.586352958355E-09  4.434545345036E-09  3.511163224121E-09  2.772827304196E-09
  2.184001760389E-09  1.715654216946E-09  1.344129745323E-09  1.050207435556E-09
  8.183122348409E-10  6.358584215947E-10  4.927043335864E-10  3.807008322040E-10
  2.933184973465E-10  2.253407431592E-10  1.726119562407E-10  1.318314154556E-10
  1.003851843228E-10  7.620939917168E-11  5.767943271418E-11  4.352031507802E-11
  3.273456229053E-11  2.454421332270E-11  1.834442684123E-11  1.366645176205E-11
  1.014817391648E-11  7.510765501280E-12  5.540233998190E-12  4.072891199285E-12
  2.983948036036E-12  2.178593273602E-12  1.585039110051E-12  1.149118855075E-12
  8.301050181400E-13  5.974835850942E-13  4.284747652951E-13  3.061343661802E-13
  2.179051364723E-13  1.545155258564E-13  1.091456747228E-13  7.679817559046E-14
  5.382514448293E-14  3.757414737348E-14  2.612414784621E-14  1.808936723553E-14
  1.247417327404E-14  8.566155735121E-15  5.857662263647E-15  3.988457409109E-15
  2.703993752554E-15  1.825173066961E-15  1.226527615473E-15  8.205452001300E-16
  5.464573737423E-16  3.622555868015E-16  2.390314492836E-16  1.569827657863E-16
  1.026080636328E-16  6.674500587202E-17  0.000000000000E+00  0.000000000000E+00
  0.000000000000E+00  0.000000000000E+00
</data>
</radfunc>
</valence-charge>
<pseudocore-charge matching-radius="0.989166776931"
 number-of-continuous-derivatives="4">
<annotation model-charge-form="Teter function with specified parameters" />
<radfunc>
<data npts="291">
  2.844275287535E+01  2.844127437464E+01  2.843685454103E+01  2.842948041305E+01
  2.841865938495E+01  2.840485102730E+01  2.838725060037E+01  2.836709402633E+01
  2.834442683686E+01  2.831798891033E+01  2.828818314825E+01  2.825577947375E+01
  2.821660823293E+01  2.817568673970E+01  2.813479580006E+01  2.808768102172E+01
  2.803340734362E+01  2.798194216552E+01  2.792406276944E+01  2.785898484011E+01
  2.778583221940E+01  2.772084303264E+01  2.764951088918E+01  2.757123479232E+01
  2.748536059518E+01  2.739117710798E+01  2.728791210047E+01  2.720400245365E+01
  2.711413628023E+01  2.701791215236E+01  2.691490488036E+01  2.680466462649E+01
  2.668671607619E+01  2.656055768749E+01  2.642566104252E+01  2.628147032894E+01
  2.612740198340E+01  2.596284453401E+01  2.584699772162E+01  2.572600929412E+01
  2.559967768284E+01  2.546779609397E+01  2.533015266455E+01  2.518653065968E+01
  2.503670871536E+01  2.488046113155E+01  2.471755822029E+01  2.454776671428E+01
  2.437085024120E+01  2.418656986981E+01  2.399468473373E+01  2.379495273935E+01
  2.358713136442E+01  2.337097855411E+01  2.314625372147E+01  2.291271885928E+01
  2.267013977045E+01  2.241828742384E+01  2.215693944251E+01  2.188588173078E+01
  2.160491024647E+01  2.131383292365E+01  2.101247175095E+01  2.070066500909E+01
  2.037826967027E+01  2.004516396050E+01  1.970125008430E+01  1.952521678584E+01
  1.934645710862E+01  1.916496688171E+01  1.898074400092E+01  1.879378853150E+01
  1.860410281291E+01  1.841169156542E+01  1.821656199841E+01  1.801872392028E+01
  1.781818984971E+01  1.761497512808E+01  1.740909803286E+01  1.720057989171E+01
  1.698944519702E+01  1.677572172060E+01  1.655944062816E+01  1.634063659342E+01
  1.611934791115E+01  1.589561660911E+01  1.566948855818E+01  1.544101358044E+01
  1.521024555451E+01  1.497724251787E+01  1.474206676538E+01  1.450478494360E+01
  1.426546814027E+01  1.402419196818E+01  1.378103664301E+01  1.353608705420E+01
  1.328943282826E+01  1.304116838378E+01  1.279139297719E+01  1.254021073873E+01
  1.228773069756E+01  1.203406679528E+01  1.177933788694E+01  1.152366772871E+01
  1.126718495125E+01  1.101002301789E+01  1.075232016677E+01  1.049421933593E+01
  1.023586807053E+01  9.977418411302E+00  9.719026763312E+00  9.460853744293E+00
  9.203064011650E+00  8.945826067441E+00  8.689312040603E+00  8.433697445791E+00
  8.179160918263E+00  7.925883924320E+00  7.674050446929E+00  7.423846646233E+00
  7.175460494799E+00  6.929081387575E+00  6.684899726676E+00  6.443106481272E+00
  6.203892723027E+00  5.967449137731E+00  5.733965513939E+00  5.503630209674E+00
  5.276629598443E+00  5.053147496060E+00  4.833364570022E+00  4.617457733408E+00
  4.405599525558E+00  4.197957482040E+00  3.994693496665E+00  3.795963178620E+00
  3.601915207998E+00  3.412690693330E+00  3.228422534920E+00  3.049234798071E+00
  2.875242100497E+00  2.706549018435E+00  2.543249516139E+00  2.385426403642E+00
  2.233150827736E+00  2.086481801252E+00  1.945465775770E+00  1.810136262846E+00
  1.680513508841E+00  1.556604228288E+00  1.438401400588E+00  1.325884134555E+00
  1.219017605073E+00  1.117753065693E+00  1.022027940590E+00  9.317659987430E-01
  8.468776126173E-01  7.672601029313E-01  6.927981703483E-01  6.233644141100E-01
  5.588199367439E-01  4.990150330337E-01  4.437899604533E-01  3.929757872370E-01
  3.463953132048E-01  3.038640574002E-01  2.651913055368E-01  2.301812092137E-01
  1.986339278666E-01  1.703468034875E-01  1.451155572946E-01  1.227354967937E-01
  1.030027210495E-01  8.571531152058E-02  7.067449551027E-02  5.768576917693E-02
  4.655996714062E-02  3.711426604091E-02  2.917310994588E-02  2.256904629700E-02
  1.714346209696E-02  1.274721130551E-02  9.241125890635E-03  6.496404672929E-03
  4.394875976821E-03  2.829132132578E-03  1.702536021600E-03  9.291020810220E-04
  4.332564335231E-04  1.494830307964E-04  2.186483748913E-05  3.531077287852E-06
  5.602335474318E-05  1.485949974543E-04  2.574591792082E-04  3.650022374049E-04
  4.589790477133E-04  5.317073360346E-04  5.792773756974E-04  6.007926339589E-04
  5.976556095924E-04  5.729113724540E-04  5.306592229766E-04  4.755404973122E-04
  4.123079298786E-04  3.454792395967E-04  2.790748288895E-04  2.164367810993E-04
  1.601238191618E-04  1.118746491657E-04  7.263025082487E-05  4.260427249106E-05
  2.138980141411E-05  8.090447046210E-06  1.463905758566E-06  6.694974103642E-08
  2.392051886700E-06  6.987544748129E-06  1.255521293906E-05  1.802141270915E-05
  2.258006514067E-05  2.570804135573E-05  2.715541491345E-05  2.691467816340E-05
  2.517420905733E-05  2.226196746586E-05  1.858556727790E-05  1.457452482656E-05
  1.062967835339E-05  7.083597243265E-06  4.174373750154E-06  2.033654122635E-06
  6.882683153584E-07  7.349954603950E-08  5.501844252186E-08  4.558804311082E-07
  1.084796083694E-06  1.762131317196E-06  2.340728361073E-06  2.719566897155E-06
  2.849382640068E-06  2.730484874725E-06  2.404021844380E-06  1.938708221139E-06
  1.415461759146E-06  9.124534571408E-07  4.927675776957E-07  1.962575645851E-07
  3.637760210101E-08  0.000000000000E+00  0.000000000000E+00  0.000000000000E+00
  0.000000000000E+00  0.000000000000E+00  0.000000000000E+00  0.000000000000E+00
  0.000000000000E+00  0.000000000000E+00  0.000000000000E+00  0.000000000000E+00
  0.000000000000E+00  0.000000000000E+00  0.000000000000E+00  0.000000000000E+00
  0.000000000000E+00  0.000000000000E+00  0.000000000000E+00  0.000000000000E+00
  0.000000000000E+00  0.000000000000E+00  0.000000000000E+00  0.000000000000E+00
  0.000000000000E+00  0.000000000000E+00  0.000000000000E+00  0.000000000000E+00
  0.000000000000E+00  0.000000000000E+00  0.000000000000E+00  0.000000000000E+00
  0.000000000000E+00  0.000000000000E+00  0.000000000000E+00  0.000000000000E+00
  0.000000000000E+00  0.000000000000E+00  0.000000000000E+00  0.000000000000E+00
  0.000000000000E+00  0.000000000000E+00  0.000000000000E+00
</data>
</radfunc>
</pseudocore-charge>
<semilocal-potentials set="scalar_relativistic">
<slps n="4" l="s" rc="1.71227334671" eref="-1.17251697774">
<radfunc>
<data npts="291">
  3.620315854062E+01  3.618450645520E+01  3.612882733906E+01  3.603619590939E+01
  3.590086137636E+01  3.572918663828E+01  3.551200966646E+01  3.526552643129E+01
  3.499115228677E+01  3.467483279945E+01  3.432290553123E+01  3.394582492538E+01
  3.349749188225E+01  3.303767285965E+01  3.258668436610E+01  3.207727165915E+01
  3.150359499774E+01  3.097216834256E+01  3.038860929110E+01  2.974964435198E+01
  2.905221485155E+01  2.845032641406E+01  2.780806582402E+01  2.712446450033E+01
  2.639882895993E+01  2.563078797344E+01  2.482033912188E+01  2.418490265138E+01
  2.352617225230E+01  2.284463846756E+01  2.214095037114E+01  2.141592066100E+01
  2.067052875793E+01  1.990592165702E+01  1.912341231457E+01  1.832447540101E+01
  1.751074030920E+01  1.668398137615E+01  1.612650988357E+01  1.556468965415E+01
  1.499913623125E+01  1.443048361894E+01  1.385938162910E+01  1.328649306827E+01
  1.271249078842E+01  1.213805462747E+01  1.156386826769E+01  1.099061604135E+01
  1.041897971401E+01  9.849635276724E+00  9.283249778252E+00  8.720478228267E+00
  8.161960601852E+00  7.608318974411E+00  7.060154814726E+00  6.518046462127E+00
  5.982546811761E+00  5.454181229747E+00  4.933445717733E+00  4.420805343943E+00
  3.916692955430E+00  3.421508183886E+00  2.935616755024E+00  2.459350109367E+00
  1.993005340131E+00  1.536845451890E+00  1.091099941761E+00  8.721953499061E-01
  6.559657029067E-01  4.424307188213E-01  2.316082482546E-01  2.351432979397E-02
 -1.818367497748E-01 -3.844323905468E-01 -5.842616099594E-01 -7.813149687347E-01
 -9.755844924178E-01 -1.167063588640E+00 -1.355746960252E+00 -1.541630514489E+00
 -1.724711268359E+00 -1.904987250458E+00 -2.082457399433E+00 -2.257121459370E+00
 -2.428979872376E+00 -2.598033668675E+00 -2.764284354577E+00 -2.927733798694E+00
 -3.088384116830E+00 -3.246237556008E+00 -3.401296378149E+00 -3.553562743937E+00
 -3.703038597477E+00 -3.849725552395E+00 -3.993624780061E+00 -4.134736900697E+00
 -4.273061878146E+00 -4.408598919163E+00 -4.541346378122E+00 -4.671301668067E+00
 -4.798461179106E+00 -4.922820205199E+00 -5.044372880360E+00 -5.163112125397E+00
 -5.279029606328E+00 -5.392115705569E+00 -5.502359507052E+00 -5.609748796396E+00
 -5.714270077234E+00 -5.815908604742E+00 -5.914648437390E+00 -6.010472507800E+00
 -6.103362713548E+00 -6.193300028548E+00 -6.280264635560E+00 -6.364236080107E+00
 -6.445193445901E+00 -6.523115551593E+00 -6.597981168364E+00 -6.669769257530E+00
 -6.738459226967E+00 -6.804031204716E+00 -6.866466327703E+00 -6.925747042980E+00
 -6.981857418392E+00 -7.034783458999E+00 -7.084513425020E+00 -7.131038146440E+00
 -7.174351328872E+00 -7.214449844634E+00 -7.251334002456E+00 -7.285007788719E+00
 -7.315479072659E+00 -7.342759767605E+00 -7.366865940093E+00 -7.387817858557E+00
 -7.405639973422E+00 -7.420360820702E+00 -7.432012841764E+00 -7.440632112789E+00
 -7.446257978636E+00 -7.448932587411E+00 -7.448700324012E+00 -7.445607143362E+00
 -7.439699806944E+00 -7.431025029664E+00 -7.419628547935E+00 -7.405554124250E+00
 -7.388842508317E+00 -7.369530380033E+00 -7.347649305036E+00 -7.323224739285E+00