<?xml version="1.0" encoding="UTF-8" ?>
<psml version="1.1" energy_unit="hartree" length_unit="bohr"
 uuid="67994dd0-1d66-11e8-4a09-56c2dd7ba17d"
 xmlns="http://esl.cecam.org/PSML/ns/1.1">
<provenance creator="ONCVPSP-3.3.0+psml-3.3.0-73 (scalar-relativistic)"
 date="2018-03-01">
<annotation action="semilocal-pseudopotential-generation"
 action-cont="projectors-generation" />
<input-file name="oncvpsp-input">
<![CDATA[# atsym z nc nv iexc psfile
Pb 82 10 5 -116133 upf
# n l f
1 0 2.0
2 0 2.0
2 1 6.0
3 0 2.0
3 1 6.0
3 2 10.0
4 0 2.0
4 1 6.0
4 2 10.0
4 3 14.0
5 0 2.0
5 1 6.0
5 2 10.0
6 0 2.0
6 1 2.0
# lmax
2
# l rc ep ncon nbas qcut
0 1.4 0.0 4 8 9.0
1 1.5 0.0 4 8 8.4
2 1.4 0.0 4 8 9.0
# lloc lpopt rc5 dvloc0
4 5 1.3 0.0
# l nproj debl
0 2 1.8
1 2 2.5
2 2 1.0
# icmod fcfact rcfact
3 6.0 1.34
# epsh1 epsh2 depsh
-15.0 12.0 0.02
# rlmax drl
6.0 0.01
 0
]]>
</input-file>
</provenance>
<pseudo-atom-spec atomic-label="Pb" atomic-number="82" z-pseudo="22"
 flavor="Hamann&apos;s oncvpsp" relativity="scalar" spin-dft="no"
 core-corrections="yes">
<annotation pseudo-energy="-195.433023092" />
<exchange-correlation>
<annotation oncvpsp-xc-code="-116133" oncvpsp-xc-type="libxc-interface" />
<libxc-info number-of-functionals="2">
<functional name="Perdew, Burke &amp; Ernzerhof SOL (GGA)" type="exchange"
 id="116" />
<functional name="Perdew, Burke &amp; Ernzerhof SOL (GGA)" type="correlation"
 id="133" />
</libxc-info>
</exchange-correlation>
<valence-configuration total-valence-charge="22">
<shell n="5" l="s" occupation="2" />
<shell n="5" l="p" occupation="6" />
<shell n="5" l="d" occupation="10" />
<shell n="6" l="s" occupation="2" />
<shell n="6" l="p" occupation="2" />
</valence-configuration>
</pseudo-atom-spec>
<grid npts="457">
<annotation type="sampled from oncvpsp log grid"
 recipe="r(i:1..N) = r1*exp(a*(i-1)) + r=0; resampled"
 recipe-cont="r1: scale; a: step" scale="0.609756097561E-05"
 step="0.119285708653E-01" delta="0.500000000000E-02" rmax="44.0711828530" />
<grid-data>
  0.000000000000E+00  5.032510521928E-03  1.005204483031E-02  1.507967014897E-02
  2.031910874069E-02  2.548791981066E-02  3.084768604356E-02  3.602211884327E-02
  4.107285502462E-02  4.627644805099E-02  5.152104103689E-02  5.667985490806E-02
  6.235522201693E-02  6.778543968363E-02  7.281477174075E-02  7.821725444879E-02
  8.402057367273E-02  8.918425832686E-02  9.466528953126E-02  1.004831705747E-01
  1.066586033671E-01  1.118711087980E-01  1.173383542312E-01  1.230727890481E-01
  1.290874710433E-01  1.353960961578E-01  1.420130296658E-01  1.471870937611E-01
  1.525496683003E-01  1.581076214217E-01  1.638680714953E-01  1.698383962400E-01
  1.760262421726E-01  1.824395344007E-01  1.890864867735E-01  1.959756124011E-01
  2.031157345580E-01  2.105159979834E-01  2.155986962387E-01  2.208041111607E-01
  2.261352056205E-01  2.315950140250E-01  2.371866440437E-01  2.429132783775E-01
  2.487781765706E-01  2.547846768657E-01  2.609361981040E-01  2.672362416710E-01
  2.736883934899E-01  2.802963260623E-01  2.870638005588E-01  2.939946689595E-01
  3.010928762468E-01  3.083624626509E-01  3.158075659492E-01  3.234324238214E-01
  3.312413762622E-01  3.392388680507E-01  3.474294512809E-01  3.558177879526E-01
  3.644086526249E-01  3.732069351339E-01  3.822176433758E-01  3.914459061574E-01
  4.008969761157E-01  4.105762327070E-01  4.204891852695E-01  4.255350554928E-01
  4.306414761587E-01  4.358091738726E-01  4.410388839590E-01  4.463313505666E-01
  4.516873267734E-01  4.571075746946E-01  4.625928655910E-01  4.681439799781E-01
  4.737617077378E-01  4.794468482307E-01  4.852002104094E-01  4.910226129343E-01
  4.969148842895E-01  5.028778629010E-01  5.089123972558E-01  5.150193460229E-01
  5.211995781752E-01  5.274539731133E-01  5.337834207906E-01  5.401888218401E-01
  5.466710877022E-01  5.532311407546E-01  5.598699144437E-01  5.665883534170E-01
  5.733874136580E-01  5.802680626219E-01  5.872312793734E-01  5.942780547259E-01
  6.014093913826E-01  6.086263040792E-01  6.159298197281E-01  6.233209775648E-01
  6.308008292956E-01  6.383704392472E-01  6.460308845181E-01  6.537832551324E-01
  6.616286541939E-01  6.695681980443E-01  6.776030164208E-01  6.857342526179E-01
  6.939630636493E-01  7.022906204131E-01  7.107181078580E-01  7.192467251523E-01
  7.278776858541E-01  7.366122180844E-01  7.454515647014E-01  7.543969834778E-01
  7.634497472795E-01  7.726111442469E-01  7.818824779779E-01  7.912650677136E-01
  8.007602485262E-01  8.103693715085E-01  8.200938039666E-01  8.299349296142E-01
  8.398941487695E-01  8.499728785548E-01  8.601725530974E-01  8.704946237346E-01
  8.809405592194E-01  8.915118459301E-01  9.022099880812E-01  9.130365079382E-01
  9.239929460335E-01  9.350808613859E-01  9.463018317225E-01  9.576574537032E-01
  9.691493431476E-01  9.807791352654E-01  9.925484848885E-01  1.004459066707E+00
  1.016512575508E+00  1.028710726414E+00  1.041055255131E+00  1.053547918192E+00
  1.066190493211E+00  1.078984779129E+00  1.091932596479E+00  1.105035787636E+00
  1.118296217088E+00  1.131715771693E+00  1.145296360953E+00  1.159039917285E+00
  1.172948396292E+00  1.187023777048E+00  1.201268062372E+00  1.215683279121E+00
  1.230271478470E+00  1.245034736212E+00  1.259975153047E+00  1.275094854883E+00
  1.290395993142E+00  1.305880745059E+00  1.321551314000E+00  1.337409929768E+00
  1.353458848925E+00  1.369700355112E+00  1.386136759374E+00  1.402770400486E+00
  1.419603645292E+00  1.436638889036E+00  1.453878555704E+00  1.471325098372E+00
  1.488980999553E+00  1.506848771548E+00  1.524930956806E+00  1.543230128288E+00
  1.561748889827E+00  1.580489876505E+00  1.599455755023E+00  1.618649224084E+00
  1.638073014773E+00  1.657729890950E+00  1.677622649641E+00  1.697754121437E+00
  1.718127170894E+00  1.738744696945E+00  1.759609633308E+00  1.780724948908E+00
  1.802093648295E+00  1.823718772074E+00  1.845603397339E+00  1.867750638107E+00
  1.890163645765E+00  1.912845609514E+00  1.935799756828E+00  1.959029353910E+00
  1.982537706157E+00  2.006328158631E+00  2.030404096534E+00  2.054768945693E+00
  2.079426173041E+00  2.104379287117E+00  2.129631838563E+00  2.155187420626E+00
  2.181049669673E+00  2.207222265709E+00  2.233708932898E+00  2.260513440092E+00
  2.287639601374E+00  2.315091276590E+00  2.342872371909E+00  2.370986840372E+00
  2.399438682457E+00  2.428231946646E+00  2.457370730006E+00  2.486859178766E+00
  2.516701488911E+00  2.546901906778E+00  2.577464729659E+00  2.608394306415E+00
  2.639695038092E+00  2.671371378549E+00  2.703427835092E+00  2.735868969113E+00
  2.768699396742E+00  2.801923789503E+00  2.835546874977E+00  2.869573437477E+00
  2.904008318727E+00  2.938856418551E+00  2.974122695574E+00  3.009812167921E+00
  3.045929913936E+00  3.082481072903E+00  3.119470845778E+00  3.156904495927E+00
  3.194787349879E+00  3.233124798077E+00  3.271922295654E+00  3.311185363202E+00
  3.350919587560E+00  3.391130622611E+00  3.431824190082E+00  3.473006080363E+00
  3.514682153328E+00  3.556858339168E+00  3.599540639238E+00  3.642735126908E+00
  3.686447948431E+00  3.730685323813E+00  3.775453547698E+00  3.820758990271E+00
  3.866608098154E+00  3.913007395332E+00  3.959963484076E+00  4.007483045885E+00
  4.055572842435E+00  4.104239716545E+00  4.153490593143E+00  4.203332480261E+00
  4.253772470024E+00  4.304817739664E+00  4.356475552540E+00  4.408753259171E+00
  4.461658298281E+00  4.515198197860E+00  4.569380576234E+00  4.624213143149E+00
  4.679703700867E+00  4.735860145277E+00  4.792690467021E+00  4.850202752625E+00
  4.908405185656E+00  4.967306047884E+00  5.026913720459E+00  5.087236685104E+00
  5.148283525326E+00  5.210062927630E+00  5.272583682761E+00  5.335854686954E+00
  5.399884943198E+00  5.464683562516E+00  5.530259765266E+00  5.596622882449E+00
  5.663782357039E+00  5.731747745323E+00  5.800528718267E+00  5.870135062886E+00
  5.940576683641E+00  6.011863603845E+00  6.084005967091E+00  6.157014038696E+00
  6.230898207160E+00  6.305668985646E+00  6.381337013474E+00  6.457913057636E+00
  6.535408014327E+00  6.613832910499E+00  6.693198905425E+00  6.773517292290E+00
  6.854799499798E+00  6.937057093795E+00  7.020301778921E+00  7.104545400268E+00
  7.189799945071E+00  7.276077544412E+00  7.363390474945E+00  7.451751160644E+00
  7.541172174572E+00  7.631666240667E+00  7.723246235555E+00  7.815925190382E+00
  7.909716292666E+00  8.004632888178E+00  8.100688482836E+00  8.197896744630E+00
  8.296271505566E+00  8.395826763633E+00  8.496576684796E+00  8.598535605014E+00
  8.701718032274E+00  8.806138648661E+00  8.911812312445E+00  9.018754060195E+00
  9.126979108917E+00  9.236502858224E+00  9.347340892523E+00  9.459508983233E+00
  9.573023091032E+00  9.687899368124E+00  9.804154160542E+00  9.921804010468E+00
  1.004086565859E+01  1.016135604650E+01  1.028329231905E+01  1.040669182688E+01
  1.053157212881E+01  1.065795099435E+01  1.078584640628E+01  1.091527656316E+01
  1.104625988192E+01  1.117881500050E+01  1.131296078051E+01  1.144871630987E+01
  1.158610090559E+01  1.172513411646E+01  1.186583572586E+01  1.200822575457E+01
  1.215232446362E+01  1.229815235718E+01  1.244573018547E+01  1.259507894770E+01
  1.274621989507E+01  1.289917453381E+01  1.305396462821E+01  1.321061220375E+01
  1.336913955020E+01  1.352956922480E+01  1.369192405550E+01  1.385622714416E+01
  1.402250186989E+01  1.419077189233E+01  1.436106115504E+01  1.453339388890E+01
  1.470779461557E+01  1.488428815096E+01  1.506289960877E+01  1.524365440407E+01
  1.542657825692E+01  1.561169719600E+01  1.579903756236E+01  1.598862601310E+01
  1.618048952526E+01  1.637465539956E+01  1.657115126436E+01  1.677000507953E+01
  1.697124514049E+01  1.717490008217E+01  1.738099888316E+01  1.758957086976E+01
  1.780064572019E+01  1.801425346883E+01  1.823042451046E+01  1.844918960459E+01
  1.867057987984E+01  1.889462683840E+01  1.912136236046E+01  1.935081870879E+01
  1.958302853329E+01  1.981802487569E+01  2.005584117420E+01  2.029651126829E+01
  2.054006940351E+01  2.078655023635E+01  2.103598883919E+01  2.128842070526E+01
  2.154388175372E+01  2.180240833477E+01  2.206403723478E+01  2.232880568160E+01
  2.259675134978E+01  2.286791236598E+01  2.314232731437E+01  2.342003524214E+01
  2.370107566505E+01  2.398548857303E+01  2.427331443590E+01  2.456459420913E+01
  2.485936933964E+01  2.515768177172E+01  2.545957395298E+01  2.576508884042E+01
  2.607426990650E+01  2.638716114538E+01  2.670380707912E+01  2.702425276407E+01
  2.734854379724E+01  2.767672632281E+01  2.800884703868E+01  2.834495320315E+01
  2.868509264158E+01  2.902931375328E+01  2.937766551832E+01  2.973019750454E+01
  3.008695987460E+01  3.044800339309E+01  3.081337943381E+01  3.118313998701E+01
  3.155733766686E+01  3.193602571886E+01  3.231925802749E+01  3.270708912382E+01
  3.309957419330E+01  3.349676908362E+01  3.389873031263E+01  3.430551507638E+01
  3.471718125729E+01  3.513378743238E+01  3.555539288157E+01  3.598205759615E+01
  3.641384228730E+01  3.685080839475E+01  3.729301809549E+01  3.774053431263E+01
  3.819342072439E+01  3.865174177308E+01  3.911556267436E+01  3.958494942645E+01
  4.005996881956E+01  4.054068844540E+01  4.102717670674E+01  4.151950282723E+01
  4.201773686115E+01  4.252194970349E+01  4.303221309993E+01  4.354859965713E+01
  4.407118285301E+01
</grid-data>
</grid>
<valence-charge total-charge="22" is-unscreening-charge="yes"
 rescaled-to-z-pseudo="no">
<radfunc>
<data npts="457">
  4.000807185631E+00  4.003668726601E+00  4.012223248256E+00  4.026496556440E+00
  4.047443453202E+00  4.074176175085E+00  4.108255223523E+00  4.147290376633E+00
  4.191196040408E+00  4.242416631752E+00  4.300176115393E+00  4.362986543393E+00
  4.438937445552E+00  4.518307387446E+00  4.597643120029E+00  4.689084112106E+00
  4.794457189066E+00  4.894413311796E+00  5.006866575102E+00  5.133352589133E+00
  5.275587506945E+00  5.401994561686E+00  5.540783077269E+00  5.693129903569E+00
  5.860314971223E+00  6.043728050564E+00  6.244875306940E+00  6.408348788153E+00
  6.583445330514E+00  6.770940541984E+00  6.971652322245E+00  7.186441270564E+00
  7.416210634604E+00  7.661905680977E+00  7.924512345888E+00  8.205054998529E+00
  8.504593120549E+00  8.824216671794E+00  9.049007076625E+00  9.283553738651E+00
  9.528193114697E+00  9.783262068377E+00  1.004909610356E+01  1.032602732713E+01
  1.061438211223E+01  1.091447843127E+01  1.122662282611E+01  1.155110698107E+01
  1.188820386304E+01  1.223816339157E+01  1.260120760122E+01  1.297752525816E+01
  1.336726589362E+01  1.377053321788E+01  1.418737788134E+01  1.461778955277E+01
  1.506168829033E+01  1.551891518830E+01  1.598922229195E+01  1.647226178512E+01
  1.696757447037E+01  1.747457757958E+01  1.799255197586E+01  1.852062883324E+01
  1.905777591234E+01  1.960278358565E+01  2.015425080703E+01  2.043191316477E+01
  2.071057126664E+01  2.098999005722E+01  2.126992002325E+01  2.155009682709E+01
  2.183024096286E+01  2.211005743916E+01  2.238923549230E+01  2.266744833439E+01
  2.294435294107E+01  2.321958988347E+01  2.349278320971E+01  2.376354038114E+01
  2.403145226894E+01  2.429609321692E+01  2.455702117624E+01  2.481377791847E+01
  2.506588933299E+01  2.531286581512E+01  2.555420275139E+01  2.578938110817E+01
  2.601786813013E+01  2.623911815446E+01  2.645257354688E+01  2.665766576514E+01
  2.685381655511E+01  2.704043928434E+01  2.721694041726E+01  2.738272113543E+01
  2.753717910563E+01  2.767971039745E+01  2.780971155095E+01  2.792658179399E+01
  2.802972540717E+01  2.811855423313E+01  2.819249032502E+01  2.825096872756E+01
  2.829344038199E+01  2.831937514419E+01  2.832826490346E+01  2.831962678692E+01
  2.829300643252E+01  2.824798131127E+01  2.818416407713E+01  2.810120592057E+01
  2.799879990001E+01  2.787668422287E+01  2.773464544643E+01  2.757252156684E+01
  2.739020496330E+01  2.718764516324E+01  2.696485139367E+01  2.672189488362E+01
  2.645891088263E+01  2.617610036107E+01  2.587373135915E+01  2.555213995355E+01
  2.521173081279E+01  2.485297731567E+01  2.447642121075E+01  2.408267179897E+01
  2.367240462661E+01  2.324635968065E+01  2.280533908465E+01  2.235020429927E+01
  2.188187283744E+01  2.140131451101E+01  2.090954723163E+01  2.040763239479E+01
  1.989666988159E+01  1.937779271811E+01  1.885216143677E+01  1.832095818766E+01
  1.778538065092E+01  1.724663580302E+01  1.670593359057E+01  1.616448056534E+01
  1.562347353280E+01  1.508409326443E+01  1.454749832135E+01  1.401481903304E+01
  1.348715167128E+01  1.296555285511E+01  1.245103421880E+01  1.194455737094E+01
  1.144702916966E+01  1.095929733681E+01  1.048214643201E+01  1.001629420768E+01
  9.562388365979E+00  9.121003740756E+00  8.692639929252E+00  8.277719401324E+00
  7.876586116555E+00  7.489504682059E+00  7.116660085491E+00  6.758158038638E+00
  6.414025967292E+00  6.084214680749E+00  5.768600746708E+00  5.466989588271E+00
  5.179120940421E+00  4.904681552012E+00  4.643321725389E+00  4.394661629546E+00
  4.158294293887E+00  3.933790985995E+00  3.720706521510E+00  3.518587708709E+00
  3.326982954124E+00  3.145444328623E+00  2.973529502525E+00  2.810803368914E+00
  2.656839475052E+00  2.511221244603E+00  2.373543009227E+00  2.243410862167E+00
  2.120443347098E+00  2.004271995410E+00  1.894541724905E+00  1.790911112547E+00
  1.693052553535E+00  1.600652318507E+00  1.513410520155E+00  1.431040999980E+00
  1.353271145304E+00  1.279841646060E+00  1.210506200220E+00  1.145031176094E+00
  1.083195239102E+00  1.024788949976E+00  9.696143407358E-01  9.174844741878E-01
  8.682229921146E-01  8.216636567690E-01  7.776498897633E-01  7.360343119471E-01
  6.966782874023E-01  6.594514742483E-01  6.242313845473E-01  5.909029552302E-01
  5.593581316206E-01  5.294954648258E-01  5.012197239837E-01  4.744415241002E-01
  4.490769699902E-01  4.250473166312E-01  4.022786460676E-01  3.807015608492E-01
  3.602508938555E-01  3.408654342466E-01  3.224876691867E-01  3.050635409087E-01
  2.885422186254E-01  2.728758847425E-01  2.580195347937E-01  2.439307904863E-01
  2.305697252340E-01  2.178987015398E-01  2.058822195918E-01  1.944867764444E-01
  1.836807351232E-01  1.734342031182E-01  1.637189195933E-01  1.545081507751E-01
  1.457765929607E-01  1.375002826139E-01  1.296565130468E-01  1.222237572040E-01
  1.151815961000E-01  1.085106524786E-01  1.021925292945E-01  9.620975264121E-02
  9.054571877150E-02  8.518464488531E-02  8.011152337927E-02  7.531207927644E-02
  7.077273057525E-02  6.648055127697E-02  6.242323687044E-02  5.858907207031E-02
  5.496690062249E-02  5.154609700621E-02  4.831653987695E-02  4.526858710853E-02
  4.239305230552E-02  3.968118266905E-02  3.712463811062E-02  3.471547151830E-02
  3.244611008970E-02  3.030933765289E-02  2.829827791541E-02  2.640637856190E-02
  2.462739616274E-02  2.295538183653E-02  2.138466762448E-02  1.990985353788E-02
  1.852579524405E-02  1.722759235943E-02  1.601057732155E-02  1.487030481378E-02
  1.380254171863E-02  1.280325757641E-02  1.186861552698E-02  1.099496371284E-02
  1.017882712154E-02  9.416899845738E-03  8.706037738673E-03  8.043251442655E-03
  7.425699767972E-03  6.850683399482E-03  6.315638908212E-03  5.818133045608E-03
  5.355857298636E-03  4.926622684684E-03  4.528354766330E-03  4.159088867265E-03
  3.816965472128E-03  3.500225794638E-03  3.207207500071E-03  2.936340569897E-03
  2.686143298113E-03  2.455218410506E-03  2.242249299681E-03  2.045996370156E-03
  1.865293489187E-03  1.699044540143E-03  1.546220076270E-03  1.405854073515E-03
  1.277040781750E-03  1.158931674246E-03  1.050732495578E-03  9.517004083849E-04
  8.611412394827E-04  7.784068258058E-04  7.028924605576E-04  6.340344397542E-04
  5.713077091011E-04  5.142236108538E-04  4.623277299852E-04  4.151978386427E-04
  3.724419375286E-04  3.336963924923E-04  2.986241642942E-04  2.669131291932E-04
  2.382744877365E-04  2.124412588897E-04  1.891668564485E-04  1.682237445204E-04
  1.494021687559E-04  1.325089599466E-04  1.173664065874E-04  1.038111930203E-04
  9.169339983410E-05  8.087556327993E-05  7.123179057662E-05  6.264692810959E-05
  5.501577967346E-05  4.824237206148E-05  4.223926546088E-05  3.692690626880E-05
  3.223302009303E-05  2.809204284414E-05  2.444458795772E-05  2.123694790638E-05
  1.842062827021E-05  1.595191273132E-05  1.379145744378E-05  1.190391330461E-05
  1.025757471696E-05  8.824053492948E-06  7.577976593191E-06  6.496706443918E-06
  5.560082611900E-06  4.750183653445E-06  4.051107987738E-06  3.448772677482E-06
  2.930729032053E-06  2.485993980793E-06  2.104896197072E-06  1.778935987693E-06
  1.500657997259E-06  1.263535813307E-06  1.061867595431E-06  8.906818899588E-07
  7.456528310935E-07  6.230239693286E-07  5.195400083704E-07  4.323857723258E-07
  3.591317653892E-07  2.976857263648E-07  2.462496198817E-07  2.032815448411E-07
  1.674620782906E-07  1.376646093541E-07  1.129292529064E-07  9.243996623756E-08
  7.550452390603E-08  6.153703624856E-08  5.004272555765E-08  4.060470071983E-08
  3.287249612885E-08  2.655216394223E-08  2.139773041991E-08  1.720384657957E-08
  1.379948233086E-08  1.104252923312E-08  8.815192705469E-09  7.020068168152E-09
  5.576808118756E-09  4.419298409594E-09  3.493272106326E-09  2.754298356843E-09
  2.166091767741E-09  1.699094954747E-09  1.329293281474E-09  1.037226403054E-09
  8.071661583692E-10  6.264346736975E-10  4.848403141152E-10  3.742124048793E-10
  2.880184969541E-10  2.210504179618E-10  1.691674770926E-10  1.290870207149E-10
  9.821410148797E-11  7.450336089352E-11  5.634736299876E-11  4.248658245154E-11
  3.193706570063E-11  2.393247202122E-11  1.787777839090E-11  1.331241562908E-11
  9.881006462472E-12  7.310211459515E-12  5.390466602049E-12  3.961625694160E-12
  2.901709627957E-12  2.118119385622E-12  1.540796223556E-12  1.116915564479E-12
  8.067847788843E-13  5.806826869041E-13  4.164331214278E-13  2.975486562538E-13
  2.118156094906E-13  1.502193310923E-13  1.061309346447E-13  7.469415517132E-14
  5.236482171608E-14  3.656627155321E-14  2.543250747091E-14  1.761750013281E-14
  1.215415813507E-14  8.350444831274E-15  5.713165945857E-15  3.892285329739E-15
  2.640407377326E-15  1.783418250363E-15  1.199302573836E-15  8.029243459543E-16
  5.351401313841E-16  3.550454055716E-16  2.344768208643E-16  1.541315172426E-16
  1.008402899778E-16  6.566033544259E-17  4.254744347235E-17  2.743594242003E-17
  1.760421664812E-17  1.123926704790E-17  7.139330270601E-18  4.511786670954E-18
  2.836509895622E-18  1.773933822329E-18  1.103519998394E-18  6.827859514824E-19
  4.201669837263E-19  2.571361014466E-19  1.564869075597E-19  9.469691513909E-20
  5.697756464367E-20  0.000000000000E+00  0.000000000000E+00  0.000000000000E+00
  0.000000000000E+00  0.000000000000E+00  0.000000000000E+00  0.000000000000E+00
  0.000000000000E+00
</data>
</radfunc>
</valence-charge>
<pseudocore-charge matching-radius="0.719246725152"
 number-of-continuous-derivatives="4">
<annotation model-charge-form="Teter function with specified parameters" />
<radfunc>
<data npts="290">
  1.744637730746E+02  1.744487448967E+02  1.744038224917E+02  1.743288827272E+02
  1.742189354069E+02  1.740786726636E+02  1.738999516078E+02  1.736953582793E+02
  1.734653885662E+02  1.731973058732E+02  1.728952577792E+02  1.725671049784E+02
  1.721707261340E+02  1.717569980192E+02  1.713439483115E+02  1.708684883388E+02
  1.703213928547E+02  1.698032104117E+02  1.692211470870E+02  1.685675794157E+02
  1.678340417658E+02  1.671833610275E+02  1.664702560987E+02  1.656890378059E+02
  1.648335613121E+02  1.638972031475E+02  1.628728402808E+02  1.620422386795E+02
  1.611544286050E+02  1.602058207923E+02  1.591926547762E+02  1.581109994957E+02
  1.569567556892E+02  1.557256604114E+02  1.544132940486E+02  1.530150902488E+02
  1.515263492310E+02  1.499422549829E+02  1.488307962702E+02  1.476733042471E+02
  1.464682965031E+02  1.452142858989E+02  1.439097858101E+02  1.425533159936E+02
  1.411434091188E+02  1.396786180086E+02  1.381575236316E+02  1.365787438897E+02
  1.349409432405E+02  1.332428431945E+02  1.314832337231E+02  1.296609856080E+02
  1.277750637586E+02  1.258245415173E+02  1.238086159619E+02  1.217266242074E+02
  1.195780606941E+02  1.173625954360E+02  1.150800931869E+02  1.127306334605E+02
  1.103145313213E+02  1.078323588339E+02  1.052849670353E+02  1.026735082570E+02
  9.999945859637E+01  9.726464029191E+01  9.447124372179E+01  9.305336900433E+01
  9.162184869889E+01  9.017706944989E+01  8.871944469074E+01  8.724941518709E+01
  8.576744954538E+01  8.427404468307E+01  8.276972625587E+01  8.125504903761E+01
  7.973059724822E+01  7.819698482469E+01  7.665485563044E+01  7.510488359755E+01
  7.354777279699E+01  7.198425743116E+01  7.041510174356E+01  6.884109983991E+01
  6.726307541520E+01  6.568188138110E+01  6.409839938822E+01  6.251353923758E+01
  6.092823817603E+01  5.934346007026E+01  5.776019445422E+01  5.617945544531E+01
  5.460228052443E+01  5.302972917589E+01  5.146288138320E+01  4.990283597739E+01
  4.835070883492E+01  4.680763092302E+01  4.527474619081E+01  4.375320930534E+01
  4.224418323258E+01  4.074883666420E+01  3.926834129204E+01  3.780386893328E+01
  3.635658851017E+01  3.492766288996E+01  3.351824559132E+01  3.212947736543E+01
  3.076248266104E+01  2.941836598449E+01  2.809820816702E+01  2.680306255358E+01
  2.553395112864E+01  2.429186059639E+01  2.307773843432E+01  2.189248894064E+01
  2.073696929785E+01  1.961198567611E+01  1.851828940176E+01  1.745657321740E+01
  1.642746766158E+01  1.543153759708E+01  1.446927891752E+01  1.354111546327E+01
  1.264739617753E+01  1.178839253415E+01  1.096429626857E+01  1.017521744262E+01
  9.421182873658E+00  8.702134956898E+00  8.017930908661E+00  7.368342456061E+00
  6.753055996364E+00  6.171673246349E+00  5.623712398718E+00  5.108609798769E+00
  4.625722150347E+00  4.174329255358E+00  3.753637286057E+00  3.362782583813E+00
  3.000835972229E+00  2.666807566371E+00  2.359652053538E+00  2.078274414515E+00
  1.821536047736E+00  1.588261252293E+00  1.377244019416E+00  1.187255075999E+00
  1.017049118092E+00  8.653721671892E-01  7.309689776852E-01  6.125904202283E-01
  5.090007630059E-01  4.189847713421E-01  3.413545455242E-01  2.749560175857E-01
  2.186750299493E-01  1.714429224338E-01  1.322415591884E-01  1.001077336423E-01
  7.413689751321E-02  5.348616923858E-02  3.737658776923E-02  2.509458934698E-02
  1.599269748340E-02  9.489429634141E-03  5.068437752248E-03  2.276913699034E-03
  7.233040612451E-04  7.439191434371E-05  5.181512046250E-05  4.281014912880E-04
  1.022310228656E-03  1.695376151960E-03  2.345258043806E-03  2.901994759170E-03
  3.322772380834E-03  3.587102576543E-03  3.692206422208E-03  3.648689399119E-03
  3.476582252238E-03  3.201809214014E-03  2.853130155246E-03  2.459587011322E-03
  2.048467913657E-03  1.643785452205E-03  1.265249056173E-03  9.276962600029E-04
  6.409342449381E-04  4.099320767770E-04  2.352959677724E-04  1.139550215359E-04
  3.998347114850E-05  5.487420562775E-06  1.489396089403E-06  1.875227593198E-05
  4.849488883734E-05  8.296410748648E-05  1.158418436259E-04  1.424791453990E-04
  1.599627502684E-04  1.670311460486E-04  1.638667222873E-04  1.517973914992E-04
  1.329447607388E-04  1.098564078708E-04  8.515718257450E-05  6.124907497374E-05
  4.008166189136E-05  2.300621484952E-05  1.071710906600E-05  3.275115600263E-06
  1.993434985905E-07  6.087420395742E-07  3.390680097141E-06  7.373428239340E-06
  1.148132157570E-05  1.485562686860E-05  1.693006960654E-05  1.745680240798E-05
  1.648542993107E-05  1.430367982427E-05  1.135268620645E-05  8.132122177146E-06
  5.110370941502E-06  2.652682311328E-06  9.762592212460E-07  1.361466346731E-07
  0.000000000000E+00  0.000000000000E+00  0.000000000000E+00  0.000000000000E+00
  0.000000000000E+00  0.000000000000E+00  0.000000000000E+00  0.000000000000E+00
  0.000000000000E+00  0.000000000000E+00  0.000000000000E+00  0.000000000000E+00
  0.000000000000E+00  0.000000000000E+00  0.000000000000E+00  0.000000000000E+00
  0.000000000000E+00  0.000000000000E+00  0.000000000000E+00  0.000000000000E+00
  0.000000000000E+00  0.000000000000E+00  0.000000000000E+00  0.000000000000E+00
  0.000000000000E+00  0.000000000000E+00  0.000000000000E+00  0.000000000000E+00
  0.000000000000E+00  0.000000000000E+00  0.000000000000E+00  0.000000000000E+00
  0.000000000000E+00  0.000000000000E+00  0.000000000000E+00  0.000000000000E+00
  0.000000000000E+00  0.000000000000E+00  0.000000000000E+00  0.000000000000E+00
  0.000000000000E+00  0.000000000000E+00  0.000000000000E+00  0.000000000000E+00
  0.000000000000E+00  0.000000000000E+00  0.000000000000E+00  0.000000000000E+00
  0.000000000000E+00  0.000000000000E+00  0.000000000000E+00  0.000000000000E+00
  0.000000000000E+00  0.000000000000E+00  0.000000000000E+00  0.000000000000E+00
  0.000000000000E+00  0.000000000000E+00  0.000000000000E+00  0.000000000000E+00
  0.000000000000E+00  0.000000000000E+00
</data>
</radfunc>
</pseudocore-charge>
<semilocal-potentials set="scalar_relativistic">
<slps n="5" l="s" rc="1.40277040049" eref="-5.29887694727">
<radfunc>
<data npts="290">
 -1.487023839452E+01 -1.487280174079E+01 -1.488046136619E+01 -1.489323005954E+01
 -1.491194292420E+01 -1.493577987432E+01 -1.496609500128E+01 -1.500071960581E+01
 -1.503953841468E+01 -1.508465704244E+01 -1.513532045337E+01 -1.519015734534E+01
 -1.525611199954E+01 -1.532462474697E+01 -1.539269237137E+01 -1.547063588307E+01
 -1.555978537439E+01 -1.564369738413E+01 -1.573734878181E+01 -1.584174860582E+01
 -1.595797932520E+01 -1.606025469432E+01 -1.617145902285E+01 -1.629223661399E+01
 -1.642325161066E+01 -1.656518284736E+01 -1.671871729661E+01 -1.684189626689E+01
 -1.697227534993E+01 -1.711013540078E+01 -1.725574833948E+01 -1.740937366793E+01
 -1.757125459629E+01 -1.774161377235E+01 -1.792064861325E+01 -1.810852624702E+01
 -1.830537807949E+01 -1.851129401258E+01 -1.865362995257E+01 -1.880001377286E+01
 -1.895043343698E+01 -1.910486451623E+01 -1.926326930391E+01 -1.942559592469E+01
 -1.959177744417E+01 -1.976173098450E+01 -1.993535685150E+01 -2.011253767970E+01
 -2.029313760123E+01 -2.047700144493E+01 -2.066395397180E+01 -2.085379915280E+01
 -2.104631949484E+01 -2.124127542037E+01 -2.143840470543E+01 -2.163742198064E+01
 -2.183801829882E+01 -2.203986077229E+01 -2.224259228191E+01 -2.244583125947E+01
 -2.264917154379E+01 -2.285218231043E+01 -2.305440807394E+01 -2.325536876101E+01
 -2.345455985243E+01 -2.365145259137E+01 -2.384549425532E+01 -2.394126673607E+01
 -2.403610848936E+01 -2.412994384264E+01 -2.422269569860E+01 -2.431428555057E+01
 -2.440463349883E+01 -2.449365826795E+01 -2.458127722492E+01 -2.466740639833E+01
 -2.475196049861E+01 -2.483485293920E+01 -2.491599585895E+01 -2.499530014560E+01
 -2.507267546066E+01 -2.514803026546E+01 -2.522127184884E+01 -2.529230635629E+01
 -2.536103882085E+01 -2.542737319585E+01 -2.549121238970E+01 -2.555245830278E+01
 -2.561101186680E+01 -2.566677308666E+01 -2.571964108518E+01 -2.576951415075E+01
 -2.581628978836E+01 -2.585986477408E+01 -2.590013521334E+01 -2.593699660334E+01
 -2.597034389972E+01 -2.600007158803E+01 -2.602607376007E+01 -2.604824419557E+01
 -2.606647644950E+01 -2.608066394528E+01 -2.609070007434E+01 -2.609647830222E+01
 -2.609789228171E+01 -2.609483597319E+01 -2.608720377269E+01 -2.607489064788E+01
 -2.605779228237E+01 -2.603580522873E+01 -2.600882707041E+01 -2.597675659317E+01
 -2.593949396614E+01 -2.589694093300E+01 -2.584900101374E+01 -2.579557971731E+01
 -2.573658476572E+01 -2.567192633014E+01 -2.560151727943E+01 -2.552527344206E+01
 -2.544311388184E+01 -2.535496118874E+01 -2.526074178552E+01 -2.516038625162E+01
 -2.505382966571E+01 -2.494101196851E+01 -2.482187834802E+01 -2.469637964941E+01
 -2.456447281238E+01 -2.442612133917E+01 -2.428129579711E+01 -2.412997436010E+01
 -2.397214339416E+01 -2.380779809325E+01 -2.363694317250E+01 -2.345959362707E+01
 -2.327577556654E+01 -2.308552713627E+01 -2.288889953909E+01 -2.268595817315E+01
 -2.247678390421E+01 -2.226147449415E+01 -2.204014621064E+01 -2.181293564760E+01
 -2.158000179056E+01 -2.134152836638E+01 -2.109772652323E+01 -2.084883789274E+01