<?xml version="1.0" encoding="UTF-8" ?>
<psml version="1.1" energy_unit="hartree" length_unit="bohr"
 uuid="f533aab0-1d60-11e8-7d34-a6c4e7ffe43d"
 xmlns="http://esl.cecam.org/PSML/ns/1.1">
<provenance creator="ONCVPSP-3.3.0+psml-3.3.0-73 (scalar-relativistic)"
 date="2018-03-01">
<annotation action="semilocal-pseudopotential-generation"
 action-cont="projectors-generation" />
<input-file name="oncvpsp-input">
<![CDATA[# atsym z nc nv iexc psfile
Pb 82 12 3 -116133 upf
# n l f
1 0 2.0
2 0 2.0
2 1 6.0
3 0 2.0
3 1 6.0
3 2 10.0
4 0 2.0
4 1 6.0
4 2 10.0
5 0 2.0
5 1 6.0
4 3 14.0
5 2 10.0
6 0 2.0
6 1 2.0
# lmax
2
# l rc ep ncon nbas qcut
0 2.4 0.0 4 7 3.2
1 2.4 0.0 4 8 6.1
2 2.1 0.0 4 7 7.2
# lloc lpopt rc5 dvloc0
4 5 2.1 0.0
# l nproj debl
0 2 2.7
1 2 2.7
2 2 1.0
# icmod fcfact rcfact
3 6.0 1.34
# epsh1 epsh2 depsh
-15.0 12.0 0.02
# rlmax drl
6.0 0.01
 0
]]>
</input-file>
</provenance>
<pseudo-atom-spec atomic-label="Pb" atomic-number="82" z-pseudo="14"
 flavor="Hamann&apos;s oncvpsp" relativity="scalar" spin-dft="no"
 core-corrections="yes">
<annotation pseudo-energy="-60.2180267291" />
<exchange-correlation>
<annotation oncvpsp-xc-code="-116133" oncvpsp-xc-type="libxc-interface" />
<libxc-info number-of-functionals="2">
<functional name="Perdew, Burke &amp; Ernzerhof SOL (GGA)" type="exchange"
 id="116" />
<functional name="Perdew, Burke &amp; Ernzerhof SOL (GGA)" type="correlation"
 id="133" />
</libxc-info>
</exchange-correlation>
<valence-configuration total-valence-charge="14">
<shell n="5" l="d" occupation="10" />
<shell n="6" l="s" occupation="2" />
<shell n="6" l="p" occupation="2" />
</valence-configuration>
</pseudo-atom-spec>
<grid npts="457">
<annotation type="sampled from oncvpsp log grid"
 recipe="r(i:1..N) = r1*exp(a*(i-1)) + r=0; resampled"
 recipe-cont="r1: scale; a: step" scale="0.609756097561E-05"
 step="0.119285708653E-01" delta="0.500000000000E-02" rmax="44.0711828530" />
<grid-data>
  0.000000000000E+00  5.032510521928E-03  1.005204483031E-02  1.507967014897E-02
  2.031910874069E-02  2.548791981066E-02  3.084768604356E-02  3.602211884327E-02
  4.107285502462E-02  4.627644805099E-02  5.152104103689E-02  5.667985490806E-02
  6.235522201693E-02  6.778543968363E-02  7.281477174075E-02  7.821725444879E-02
  8.402057367273E-02  8.918425832686E-02  9.466528953126E-02  1.004831705747E-01
  1.066586033671E-01  1.118711087980E-01  1.173383542312E-01  1.230727890481E-01
  1.290874710433E-01  1.353960961578E-01  1.420130296658E-01  1.471870937611E-01
  1.525496683003E-01  1.581076214217E-01  1.638680714953E-01  1.698383962400E-01
  1.760262421726E-01  1.824395344007E-01  1.890864867735E-01  1.959756124011E-01
  2.031157345580E-01  2.105159979834E-01  2.155986962387E-01  2.208041111607E-01
  2.261352056205E-01  2.315950140250E-01  2.371866440437E-01  2.429132783775E-01
  2.487781765706E-01  2.547846768657E-01  2.609361981040E-01  2.672362416710E-01
  2.736883934899E-01  2.802963260623E-01  2.870638005588E-01  2.939946689595E-01
  3.010928762468E-01  3.083624626509E-01  3.158075659492E-01  3.234324238214E-01
  3.312413762622E-01  3.392388680507E-01  3.474294512809E-01  3.558177879526E-01
  3.644086526249E-01  3.732069351339E-01  3.822176433758E-01  3.914459061574E-01
  4.008969761157E-01  4.105762327070E-01  4.204891852695E-01  4.255350554928E-01
  4.306414761587E-01  4.358091738726E-01  4.410388839590E-01  4.463313505666E-01
  4.516873267734E-01  4.571075746946E-01  4.625928655910E-01  4.681439799781E-01
  4.737617077378E-01  4.794468482307E-01  4.852002104094E-01  4.910226129343E-01
  4.969148842895E-01  5.028778629010E-01  5.089123972558E-01  5.150193460229E-01
  5.211995781752E-01  5.274539731133E-01  5.337834207906E-01  5.401888218401E-01
  5.466710877022E-01  5.532311407546E-01  5.598699144437E-01  5.665883534170E-01
  5.733874136580E-01  5.802680626219E-01  5.872312793734E-01  5.942780547259E-01
  6.014093913826E-01  6.086263040792E-01  6.159298197281E-01  6.233209775648E-01
  6.308008292956E-01  6.383704392472E-01  6.460308845181E-01  6.537832551324E-01
  6.616286541939E-01  6.695681980443E-01  6.776030164208E-01  6.857342526179E-01
  6.939630636493E-01  7.022906204131E-01  7.107181078580E-01  7.192467251523E-01
  7.278776858541E-01  7.366122180844E-01  7.454515647014E-01  7.543969834778E-01
  7.634497472795E-01  7.726111442469E-01  7.818824779779E-01  7.912650677136E-01
  8.007602485262E-01  8.103693715085E-01  8.200938039666E-01  8.299349296142E-01
  8.398941487695E-01  8.499728785548E-01  8.601725530974E-01  8.704946237346E-01
  8.809405592194E-01  8.915118459301E-01  9.022099880812E-01  9.130365079382E-01
  9.239929460335E-01  9.350808613859E-01  9.463018317225E-01  9.576574537032E-01
  9.691493431476E-01  9.807791352654E-01  9.925484848885E-01  1.004459066707E+00
  1.016512575508E+00  1.028710726414E+00  1.041055255131E+00  1.053547918192E+00
  1.066190493211E+00  1.078984779129E+00  1.091932596479E+00  1.105035787636E+00
  1.118296217088E+00  1.131715771693E+00  1.145296360953E+00  1.159039917285E+00
  1.172948396292E+00  1.187023777048E+00  1.201268062372E+00  1.215683279121E+00
  1.230271478470E+00  1.245034736212E+00  1.259975153047E+00  1.275094854883E+00
  1.290395993142E+00  1.305880745059E+00  1.321551314000E+00  1.337409929768E+00
  1.353458848925E+00  1.369700355112E+00  1.386136759374E+00  1.402770400486E+00
  1.419603645292E+00  1.436638889036E+00  1.453878555704E+00  1.471325098372E+00
  1.488980999553E+00  1.506848771548E+00  1.524930956806E+00  1.543230128288E+00
  1.561748889827E+00  1.580489876505E+00  1.599455755023E+00  1.618649224084E+00
  1.638073014773E+00  1.657729890950E+00  1.677622649641E+00  1.697754121437E+00
  1.718127170894E+00  1.738744696945E+00  1.759609633308E+00  1.780724948908E+00
  1.802093648295E+00  1.823718772074E+00  1.845603397339E+00  1.867750638107E+00
  1.890163645765E+00  1.912845609514E+00  1.935799756828E+00  1.959029353910E+00
  1.982537706157E+00  2.006328158631E+00  2.030404096534E+00  2.054768945693E+00
  2.079426173041E+00  2.104379287117E+00  2.129631838563E+00  2.155187420626E+00
  2.181049669673E+00  2.207222265709E+00  2.233708932898E+00  2.260513440092E+00
  2.287639601374E+00  2.315091276590E+00  2.342872371909E+00  2.370986840372E+00
  2.399438682457E+00  2.428231946646E+00  2.457370730006E+00  2.486859178766E+00
  2.516701488911E+00  2.546901906778E+00  2.577464729659E+00  2.608394306415E+00
  2.639695038092E+00  2.671371378549E+00  2.703427835092E+00  2.735868969113E+00
  2.768699396742E+00  2.801923789503E+00  2.835546874977E+00  2.869573437477E+00
  2.904008318727E+00  2.938856418551E+00  2.974122695574E+00  3.009812167921E+00
  3.045929913936E+00  3.082481072903E+00  3.119470845778E+00  3.156904495927E+00
  3.194787349879E+00  3.233124798077E+00  3.271922295654E+00  3.311185363202E+00
  3.350919587560E+00  3.391130622611E+00  3.431824190082E+00  3.473006080363E+00
  3.514682153328E+00  3.556858339168E+00  3.599540639238E+00  3.642735126908E+00
  3.686447948431E+00  3.730685323813E+00  3.775453547698E+00  3.820758990271E+00
  3.866608098154E+00  3.913007395332E+00  3.959963484076E+00  4.007483045885E+00
  4.055572842435E+00  4.104239716545E+00  4.153490593143E+00  4.203332480261E+00
  4.253772470024E+00  4.304817739664E+00  4.356475552540E+00  4.408753259171E+00
  4.461658298281E+00  4.515198197860E+00  4.569380576234E+00  4.624213143149E+00
  4.679703700867E+00  4.735860145277E+00  4.792690467021E+00  4.850202752625E+00
  4.908405185656E+00  4.967306047884E+00  5.026913720459E+00  5.087236685104E+00
  5.148283525326E+00  5.210062927630E+00  5.272583682761E+00  5.335854686954E+00
  5.399884943198E+00  5.464683562516E+00  5.530259765266E+00  5.596622882449E+00
  5.663782357039E+00  5.731747745323E+00  5.800528718267E+00  5.870135062886E+00
  5.940576683641E+00  6.011863603845E+00  6.084005967091E+00  6.157014038696E+00
  6.230898207160E+00  6.305668985646E+00  6.381337013474E+00  6.457913057636E+00
  6.535408014327E+00  6.613832910499E+00  6.693198905425E+00  6.773517292290E+00
  6.854799499798E+00  6.937057093795E+00  7.020301778921E+00  7.104545400268E+00
  7.189799945071E+00  7.276077544412E+00  7.363390474945E+00  7.451751160644E+00
  7.541172174572E+00  7.631666240667E+00  7.723246235555E+00  7.815925190382E+00
  7.909716292666E+00  8.004632888178E+00  8.100688482836E+00  8.197896744630E+00
  8.296271505566E+00  8.395826763633E+00  8.496576684796E+00  8.598535605014E+00
  8.701718032274E+00  8.806138648661E+00  8.911812312445E+00  9.018754060195E+00
  9.126979108917E+00  9.236502858224E+00  9.347340892523E+00  9.459508983233E+00
  9.573023091032E+00  9.687899368124E+00  9.804154160542E+00  9.921804010468E+00
  1.004086565859E+01  1.016135604650E+01  1.028329231905E+01  1.040669182688E+01
  1.053157212881E+01  1.065795099435E+01  1.078584640628E+01  1.091527656316E+01
  1.104625988192E+01  1.117881500050E+01  1.131296078051E+01  1.144871630987E+01
  1.158610090559E+01  1.172513411646E+01  1.186583572586E+01  1.200822575457E+01
  1.215232446362E+01  1.229815235718E+01  1.244573018547E+01  1.259507894770E+01
  1.274621989507E+01  1.289917453381E+01  1.305396462821E+01  1.321061220375E+01
  1.336913955020E+01  1.352956922480E+01  1.369192405550E+01  1.385622714416E+01
  1.402250186989E+01  1.419077189233E+01  1.436106115504E+01  1.453339388890E+01
  1.470779461557E+01  1.488428815096E+01  1.506289960877E+01  1.524365440407E+01
  1.542657825692E+01  1.561169719600E+01  1.579903756236E+01  1.598862601310E+01
  1.618048952526E+01  1.637465539956E+01  1.657115126436E+01  1.677000507953E+01
  1.697124514049E+01  1.717490008217E+01  1.738099888316E+01  1.758957086976E+01
  1.780064572019E+01  1.801425346883E+01  1.823042451046E+01  1.844918960459E+01
  1.867057987984E+01  1.889462683840E+01  1.912136236046E+01  1.935081870879E+01
  1.958302853329E+01  1.981802487569E+01  2.005584117420E+01  2.029651126829E+01
  2.054006940351E+01  2.078655023635E+01  2.103598883919E+01  2.128842070526E+01
  2.154388175372E+01  2.180240833477E+01  2.206403723478E+01  2.232880568160E+01
  2.259675134978E+01  2.286791236598E+01  2.314232731437E+01  2.342003524214E+01
  2.370107566505E+01  2.398548857303E+01  2.427331443590E+01  2.456459420913E+01
  2.485936933964E+01  2.515768177172E+01  2.545957395298E+01  2.576508884042E+01
  2.607426990650E+01  2.638716114538E+01  2.670380707912E+01  2.702425276407E+01
  2.734854379724E+01  2.767672632281E+01  2.800884703868E+01  2.834495320315E+01
  2.868509264158E+01  2.902931375328E+01  2.937766551832E+01  2.973019750454E+01
  3.008695987460E+01  3.044800339309E+01  3.081337943381E+01  3.118313998701E+01
  3.155733766686E+01  3.193602571886E+01  3.231925802749E+01  3.270708912382E+01
  3.309957419330E+01  3.349676908362E+01  3.389873031263E+01  3.430551507638E+01
  3.471718125729E+01  3.513378743238E+01  3.555539288157E+01  3.598205759615E+01
  3.641384228730E+01  3.685080839475E+01  3.729301809549E+01  3.774053431263E+01
  3.819342072439E+01  3.865174177308E+01  3.911556267436E+01  3.958494942645E+01
  4.005996881956E+01  4.054068844540E+01  4.102717670674E+01  4.151950282723E+01
  4.201773686115E+01  4.252194970349E+01  4.303221309993E+01  4.354859965713E+01
  4.407118285301E+01
</grid-data>
</grid>
<valence-charge total-charge="14" is-unscreening-charge="yes"
 rescaled-to-z-pseudo="no">
<radfunc>
<data npts="457">
  1.985840371145E-02  1.986290517226E-02  1.987723443326E-02  1.990405251444E-02
  1.994999454294E-02  2.001999582511E-02  2.012770409181E-02  2.027648656159E-02
  2.047621635166E-02  2.075249252899E-02  2.111985359095E-02  2.158637660155E-02
  2.224361377013E-02  2.303912690091E-02  2.394506151151E-02  2.512628281043E-02
  2.666903930197E-02  2.831169341237E-02  3.036771211366E-02  3.294270734429E-02
  3.616914637767E-02  3.932955549927E-02  4.311611437698E-02  4.765292201421E-02
  5.308821562268E-02  5.959886824150E-02  6.739565455915E-02  7.423645169879E-02
  8.206368006338E-02  9.101701868984E-02  1.012550948406E-01  1.129578414436E-01
  1.263290953640E-01  1.415994477492E-01  1.590293542605E-01  1.789125081307E-01
  2.015794722964E-01  2.274015579574E-01  2.465726642962E-01  2.674652540032E-01
  2.902248673668E-01  3.150079137745E-01  3.419822595929E-01  3.713278107534E-01
  4.032370820509E-01  4.379157436616E-01  4.755831336924E-01  5.164727236986E-01
  5.608325220201E-01  6.089253974992E-01  6.610293036411E-01  7.174373805685E-01
  7.784579092191E-01  8.444140891360E-01  9.156436079582E-01  9.924979673449E-01
  1.075341526630E+00  1.164550222064E+00  1.260509916143E+00  1.363614328373E+00
  1.474262495993E+00  1.592855710849E+00  1.719793876974E+00  1.855471232745E+00
  2.000271381950E+00  2.154561580114E+00  2.318686226268E+00  2.404536052073E+00
  2.492959516437E+00  2.583989826145E+00  2.677657223882E+00  2.773988682136E+00
  2.873007582950E+00  2.974733383665E+00  3.079181268878E+00  3.186361788921E+00
  3.296280485327E+00  3.408937503807E+00  3.524327195464E+00  3.642437707059E+00
  3.763250561326E+00  3.886740228504E+00  4.012873690409E+00  4.141609998576E+00
  4.272899828195E+00  4.406685029769E+00  4.542898180647E+00  4.681462138815E+00
  4.822289601549E+00  4.965282671809E+00  5.110332435460E+00  5.257318552697E+00
  5.406108867285E+00  5.556559037488E+00  5.708512192816E+00  5.861798620954E+00
  6.016235489497E+00  6.171626607333E+00  6.327762230716E+00  6.484418919291E+00
  6.641359447472E+00  6.798332776737E+00  6.955074094497E+00  7.111304925257E+00
  7.266733319822E+00  7.421054128250E+00  7.573949362191E+00  7.725088652053E+00
  7.874129804278E+00  8.020719463640E+00  8.164493885148E+00  8.305079819644E+00
  8.442095516620E+00  8.575151847126E+00  8.703853548866E+00  8.827800594720E+00
  8.946589684924E+00  9.059815862096E+00  9.167074247055E+00  9.267961892102E+00
  9.362079747025E+00  9.449034731576E+00  9.528441906605E+00  9.599926734334E+00
  9.663127416568E+00  9.717697297828E+00  9.763307318620E+00  9.799648502225E+00
  9.826434456616E+00  9.843403871368E+00  9.850322987778E+00  9.846988018830E+00
  9.833227494280E+00  9.808904504888E+00  9.773918818844E+00  9.728208842705E+00
  9.671753398729E+00  9.604573290398E+00  9.526732628246E+00  9.438339888769E+00
  9.339548680383E+00  9.230558191990E+00  9.111613301850E+00  8.983004327026E+00
  8.845066396832E+00  8.698178437299E+00  8.542761757769E+00  8.379278235302E+00
  8.208228097512E+00  8.030147309788E+00  7.845604578441E+00  7.655197987145E+00
  7.459551289978E+00  7.259309890259E+00  7.055136540276E+00  6.847706802534E+00
  6.637704318436E+00  6.425815935043E+00  6.212726744680E+00  5.999115095538E+00
  5.785647633933E+00  5.572974440373E+00  5.361724322098E+00  5.152500324018E+00
  4.945875518147E+00  4.742389128543E+00  4.542543044523E+00  4.346798769517E+00
  4.155574846467E+00  3.969244793276E+00  3.788135573607E+00  3.612526619497E+00
  3.442649412975E+00  3.278687624423E+00  3.120777795948E+00  2.969010548833E+00
  2.823432285434E+00  2.684047347865E+00  2.550820588698E+00  2.423680302867E+00
  2.302521465079E+00  2.187209213480E+00  2.077582518030E+00  1.973457971094E+00
  1.874633638042E+00  1.780892907104E+00  1.692008280203E+00  1.607745049812E+00
  1.527864810971E+00  1.452128762120E+00  1.380300753381E+00  1.312150046078E+00
  1.247453752605E+00  1.185998931092E+00  1.127584314791E+00  1.072021661597E+00
  1.019136714794E+00  9.687697720456E-01  9.207758658833E-01  8.750245656245E-01
  8.313994177639E-01  7.897970493924E-01  7.501255940081E-01  7.123014879256E-01
  6.762458978735E-01  6.418838772901E-01  6.091443751668E-01  5.779595673531E-01
  5.482644452232E-01  5.199963898071E-01  4.930947865227E-01  4.675006907557E-01
  4.431565558411E-01  4.200060329285E-01  3.979939494088E-01  3.770667639196E-01
  3.571732494205E-01  3.382645420211E-01  3.202939297688E-01  3.032168316233E-01
  2.869907067945E-01  2.715749751727E-01  2.569309375985E-01  2.430216973766E-01
  2.298120832646E-01  2.172685742339E-01  2.053592262049E-01  1.940536009298E-01
  1.833226971163E-01  1.731388839679E-01  1.634758371292E-01  1.543084771153E-01
  1.456129102361E-01  1.373663720118E-01  1.295471730585E-01  1.221346474084E-01
  1.151091032160E-01  1.084517757909E-01  1.021447828894E-01  9.617108219043E-02
  9.051443087608E-02  8.515934723306E-02  8.009107418930E-02  7.529554469828E-02
  7.075934888340E-02  6.646970285538E-02  6.241441911663E-02  5.858187846884E-02
  5.496100334190E-02  5.154123246565E-02  4.831249680883E-02  4.526519671308E-02
  4.239018015373E-02  3.967872206276E-02  3.712250465337E-02  3.471359868948E-02
  3.244444564759E-02  3.030784072029E-02  2.829691662596E-02  2.640512816546E-02
  2.462623750527E-02  2.295430014482E-02  2.138365153809E-02  1.990889434091E-02
  1.852488625786E-02  1.722672846472E-02  1.600975458385E-02  1.486952019148E-02
  1.380179283653E-02  1.280254255114E-02  1.186793283333E-02  1.099431208215E-02
  1.017820546523E-02  9.416307198297E-03  8.705473215777E-03  8.042714210869E-03
  7.425189023338E-03  6.850198352830E-03  6.315178775529E-03  5.817697042170E-03
  5.355444635892E-03  4.926232569138E-03  4.527986399821E-03  4.158741448194E-03
  3.816638197317E-03  3.499917861549E-03  3.206918109211E-03  2.936068927267E-03
  2.685888617615E-03  2.454979916230E-03  2.242026228036E-03  2.045787971812E-03
  1.865099030818E-03  1.698863305959E-03  1.546051369337E-03  1.405697216881E-03
  1.276895119370E-03  1.158796571724E-03  1.050607340737E-03  9.515846116839E-04
  8.610342342801E-04  7.783080684958E-04  7.028014305854E-04  6.339506395240E-04
  5.712306637890E-04  5.141528681359E-04  4.622628596917E-04  4.151384323470E-04
  3.723876080812E-04  3.336467735063E-04  2.985789095901E-04  2.668719122105E-04
  2.382370009169E-04  2.124072130380E-04  1.891359800761E-04  1.681957831758E-04
  1.493768843462E-04  1.324861300535E-04  1.173458237815E-04  1.037926641762E-04
  9.167674544935E-05  8.086061680023E-05  7.121839772953E-05  6.263494624896E-05
  5.500507713642E-05  4.823282753961E-05  4.223076738733E-05  3.691935222257E-05
  3.222631622170E-05  2.808610330607E-05  2.443933438469E-05  2.123230888734E-05
  1.841653885681E-05  1.594831396556E-05  1.378829590813E-05  1.190114069476E-05
  1.025514743714E-05  8.821932273782E-06  7.576126131736E-06  6.495095065675E-06
  5.558681954228E-06  4.748968369889E-06  4.050055472635E-06  3.447862810158E-06
  2.929943939860E-06  2.485317820190E-06  2.104314951921E-06  1.778437283912E-06
  1.500230932953E-06  1.263170803506E-06  1.061556230539E-06  8.904168070540E-07
  7.454275972049E-07  6.228329758583E-07  5.193783758394E-07  4.322492646574E-07
  3.590167129711E-07  2.975889571687E-07  2.461683979540E-07  2.032135155152E-07
  1.674052195110E-07  1.376171885407E-07  1.128897888242E-07  9.240719537866E-08
  7.547737092310E-08  6.151458801910E-08  5.002420849048E-08  4.058946094916E-08
  3.285998227273E-08  2.654191214793E-08  2.138935134343E-08  1.719701424880E-08
  1.379392446958E-08  1.103801896820E-08  8.811541458805E-09  7.017119580024E-09
  5.574432866613E-09  4.417389802026E-09  3.491742346219E-09  2.753075380554E-09
  2.165116578714E-09  1.698319380317E-09  1.328678090851E-09  1.036739732676E-09
  8.067821980605E-10  6.261325735173E-10  4.846032773654E-10  3.740269377139E-10
  2.878737893239E-10  2.209378343812E-10  1.690801389641E-10  1.290194647559E-10
  9.816200122147E-11  7.446330023777E-11  5.631665276647E-11  4.246311207911E-11
  3.191918381276E-11  2.391889052195E-11  1.786749568872E-11  1.330465537385E-11
  9.875168816578E-12  7.305834464565E-12  5.387195649560E-12  3.959189480201E-12
  2.899901277922E-12  2.116781687555E-12  1.539810115184E-12  1.116191188032E-12
  8.062545552639E-13  5.802959722699E-13  4.161520993757E-13  2.973451912680E-13
  2.116688455242E-13  1.501138655918E-13  1.060554353122E-13  7.464031607374E-14
  5.232657850110E-14  3.653921373803E-14  2.541344003675E-14  1.760411778801E-14
  1.214480425971E-14  8.343933810871E-15  5.708652761302E-15  3.889170230630E-15
  2.638266492567E-15  1.781953292966E-15  1.198304542121E-15  8.022474398745E-16
  5.346830915919E-16  3.547382222337E-16  2.342713096294E-16  1.539946675918E-16
  1.007495919854E-16  6.560051179941E-17  4.250817497436E-17  2.741029245888E-17
  1.758754515288E-17  1.122848547988E-17  7.132393095984E-18  4.507345984505E-18
  2.833682038317E-18  1.772142484391E-18  1.102391287877E-18  6.820785848531E-19
  4.197260889539E-19  2.568628109345E-19  1.563184527400E-19  9.459366736688E-20
  5.691464537695E-20  0.000000000000E+00  0.000000000000E+00  0.000000000000E+00
  0.000000000000E+00  0.000000000000E+00  0.000000000000E+00  0.000000000000E+00
  0.000000000000E+00
</data>
</radfunc>
</valence-charge>
<pseudocore-charge matching-radius="1.05354791819"
 number-of-continuous-derivatives="4">
<annotation model-charge-form="Teter function with specified parameters" />
<radfunc>
<data npts="290">
  5.635590063819E+01  5.635363809429E+01  5.634687429052E+01  5.633558894263E+01
  5.631902733708E+01  5.629789166490E+01  5.627094851074E+01  5.624008796978E+01
  5.620537798771E+01  5.616488644490E+01  5.611922715716E+01  5.606957650045E+01
  5.600953999906E+01  5.594680195539E+01  5.588409133984E+01  5.581181169509E+01
  5.572851738790E+01  5.564950153053E+01  5.556060070310E+01  5.546059620108E+01
  5.534812388742E+01  5.524814986006E+01  5.513836074971E+01  5.501781443290E+01
  5.488548286565E+01  5.474024520497E+01  5.458088058963E+01  5.445129145700E+01
  5.431240842318E+01  5.416359048890E+01  5.400415637232E+01  5.383338259362E+01
  5.365050157180E+01  5.345469975583E+01  5.324511581651E+01  5.302083893057E+01
  5.278090719390E+01  5.252430620724E+01  5.234345297753E+01  5.215438768882E+01
  5.195676954391E+01  5.175024682273E+01  5.153445687345E+01  5.130902614849E+01
  5.107357029115E+01  5.082769427901E+01  5.057099263074E+01  5.030304968363E+01
  5.002343994945E+01  4.973172855716E+01  4.942747179106E+01  4.911021773429E+01
  4.877950702736E+01  4.843487375268E+01  4.807584645622E+01  4.770194931820E+01
  4.731270348513E+01  4.690762857607E+01  4.648624437643E+01  4.604807273282E+01
  4.559263966300E+01  4.511947769470E+01  4.462812844748E+01  4.411814547109E+01
  4.358909735395E+01  4.304057111391E+01  4.247217588330E+01  4.218041227261E+01
  4.188354689802E+01  4.158153894846E+01  4.127434979950E+01  4.096194316528E+01
  4.064428525550E+01  4.032134493750E+01  3.999309390332E+01  3.965950684178E+01
  3.932056161551E+01  3.897623944284E+01  3.862652508440E+01  3.827140703447E+01
  3.791087771675E+01  3.754493368451E+01  3.717357582484E+01  3.679680956685E+01
  3.641464509350E+01  3.602709755677E+01  3.563418729592E+01  3.523594005828E+01
  3.483238722248E+01  3.442356602332E+01  3.400951977806E+01  3.359029811344E+01
  3.316595719291E+01  3.273655994344E+01  3.230217628115E+01  3.186288333515E+01
  3.141876566866E+01  3.096991549665E+01  3.051643289909E+01  3.005842602874E+01
  2.959601131265E+01  2.912931364604E+01  2.865846657764E+01  2.818361248511E+01
  2.770490273935E+01  2.722249785638E+01  2.673656763535E+01  2.624729128126E+01
  2.575485751087E+01  2.525946464028E+01  2.476132065250E+01  2.426064324344E+01
  2.375765984458E+01  2.325260762055E+01  2.274573343998E+01  2.223729381769E+01
  2.172755482651E+01  2.121679197698E+01  2.070529006297E+01  2.019334297160E+01
  1.968125345564E+01  1.916933286669E+01  1.865790084749E+01  1.814728498180E+01
  1.763782040033E+01  1.712984934144E+01  1.662372066519E+01  1.611978931984E+01
  1.561841575971E+01  1.511996531383E+01  1.462480750464E+01  1.413331531676E+01
  1.364586441553E+01  1.316283231584E+01  1.268459750171E+01  1.221153849764E+01
  1.174403289299E+01  1.128245632123E+01  1.082718139601E+01  1.037857660678E+01
  9.937005176937E+00  9.502823887979E+00  9.076381873819E+00  8.658019389638E+00
  8.248066560448E+00  7.846842114906E+00  7.454652110515E+00  7.071788656858E+00
  6.698528644036E+00  6.335132483970E+00  5.981842872726E+00  5.638883582452E+00
  5.306458291931E+00  4.984749465115E+00  4.673917287308E+00  4.374098668910E+00
  4.085406326778E+00  3.807927953355E+00  3.541725483690E+00  3.286834470347E+00
  3.043263575958E+00  2.810994192826E+00  2.589980198464E+00  2.380147855363E+00
  2.181395862467E+00  1.993595564931E+00  1.816591327670E+00  1.650201076963E+00
  1.494217013027E+00  1.348406494943E+00  1.212513097687E+00  1.086257839215E+00
  9.693405737028E-01  8.614415450441E-01  7.622230926592E-01  6.713314995959E-01
  5.883989707778E-01  5.130457271690E-01  4.448821995819E-01  3.835113039004E-01
  3.285307776695E-01  2.795355563491E-01  2.361201660956E-01  1.978811087591E-01
  1.644192139102E-01  1.353419321763E-01  1.102655440206E-01  8.881725835602E-02
  7.063717608931E-02  5.538009485597E-02  4.271713283809E-02  3.233715166671E-02
  2.394796097922E-02  1.727729021336E-02  1.207351663555E-02  8.106142374843E-03
  5.166017302204E-03  3.065308884190E-03  1.637224561425E-03  7.354966588374E-04
  2.336442178705E-04  2.403033741135E-05  1.673750216954E-05  1.382868470681E-04
  3.302302400792E-04  5.476463582120E-04  7.575734890885E-04  9.374125379625E-04
  1.073333602945E-03  1.158718471005E-03  1.192669484321E-03  1.178612462706E-03
  1.123017807736E-03  1.034259656016E-03  9.216281220066E-04  7.945044336614E-04
  6.617032990181E-04  5.309813492077E-04  4.087051932655E-04  2.996677036716E-04
  2.070368305511E-04  1.324176989877E-04  7.600612979223E-05  3.681015122925E-05
  1.291560125925E-05  1.772565860212E-06  4.811099550703E-07  6.057426023401E-06
  1.566498929041E-05  2.679935734306E-05  3.741963912666E-05  4.602411388688E-05
  5.167172932851E-05  5.395498735531E-05  5.293280407950E-05  4.903412646482E-05
  4.294428347231E-05  3.548620265017E-05  2.750777215936E-05  1.978489128471E-05
  1.294731917782E-05  7.431548310984E-06  3.461878205478E-06  1.057939342330E-06
  6.439263694378E-08  1.966379913259E-07  1.095269391937E-06  2.381790682937E-06
  3.708736814024E-06  4.798716759191E-06  5.468810537166E-06  5.638957616400E-06
  5.325181467765E-06  4.620424886676E-06  3.667184565323E-06  2.626866663012E-06
  1.650769967473E-06  8.568787555570E-07  3.153546819496E-07  4.397856403453E-08
  0.000000000000E+00  0.000000000000E+00  0.000000000000E+00  0.000000000000E+00
  0.000000000000E+00  0.000000000000E+00  0.000000000000E+00  0.000000000000E+00
  0.000000000000E+00  0.000000000000E+00  0.000000000000E+00  0.000000000000E+00
  0.000000000000E+00  0.000000000000E+00  0.000000000000E+00  0.000000000000E+00
  0.000000000000E+00  0.000000000000E+00  0.000000000000E+00  0.000000000000E+00
  0.000000000000E+00  0.000000000000E+00  0.000000000000E+00  0.000000000000E+00
  0.000000000000E+00  0.000000000000E+00  0.000000000000E+00  0.000000000000E+00
  0.000000000000E+00  0.000000000000E+00
</data>
</radfunc>
</pseudocore-charge>
<semilocal-potentials set="scalar_relativistic">
<slps n="6" l="s" rc="2.42823194665" eref="-0.444510081438">
<radfunc>
<data npts="290">
  3.549325762256E+00  3.547141874323E+00  3.540616130971E+00  3.529737690982E+00
  3.513795173116E+00  3.493487383122E+00  3.467660879035E+00  3.438163431195E+00
  3.405093391482E+00  3.366657163872E+00  3.323498178751E+00  3.276784772727E+00
  3.220601641604E+00  3.162240462311E+00  3.104259315865E+00  3.037866520689E+00
  2.961929062018E+00  2.890453126189E+00  2.810680984150E+00  2.721752371166E+00
  2.622743917851E+00  2.535620194927E+00  2.440886294787E+00  2.337991038314E+00
  2.226365406478E+00  2.105426606610E+00  1.974583239957E+00  1.869593623350E+00
  1.758449880033E+00  1.640907069628E+00  1.516726508640E+00  1.385678450959E+00
  1.247545047319E+00  1.102123581045E+00  9.492299710428E-01  7.887025254896E-01
  6.204059212996E-01  4.442353751207E-01  3.223778338408E-01  1.969776714723E-01
  6.803202450150E-02 -6.445304479360E-02 -2.004619710359E-01 -3.399691200667E-01
 -4.829382403134E-01 -6.293219369205E-01 -7.790611745953E-01 -9.320848152882E-01
 -1.088309196929E+00 -1.247637759460E+00 -1.409960724322E+00 -1.575154833414E+00
 -1.743083153233E+00 -1.913594949574E+00 -2.086525637683E+00 -2.261696812179E+00
 -2.438916360404E+00 -2.617978662123E+00 -2.798664877671E+00 -2.980743325759E+00
 -3.163969951263E+00 -3.348088882375E+00 -3.532833075586E+00 -3.717925046065E+00
 -3.903077680194E+00 -4.087995126246E+00 -4.272373758577E+00 -4.364264263695E+00
 -4.455903210190E+00 -4.547250928592E+00 -4.638267468210E+00 -4.728912634407E+00
 -4.819146026638E+00 -4.908927077222E+00 -4.998215090784E+00 -5.086969284354E+00
 -5.175148828069E+00 -5.262712886465E+00 -5.349620660314E+00 -5.435831428993E+00
 -5.521304593367E+00 -5.605999719157E+00 -5.689876580807E+00 -5.772895205823E+00
 -5.855015919595E+00 -5.936199390723E+00 -6.016406676829E+00 -6.095599270910E+00
 -6.173739148234E+00 -6.250788813822E+00 -6.326711350557E+00 -6.401470467956E+00
 -6.475030551670E+00 -6.547356713756E+00 -6.618414843791E+00 -6.688171660895E+00
 -6.756594766733E+00 -6.823652699567E+00 -6.889314989438E+00 -6.953552214565E+00
 -7.016336059018E+00 -7.077639371757E+00 -7.137436227116E+00 -7.195701986769E+00
 -7.252413363280E+00 -7.307548485248E+00 -7.361086964109E+00 -7.413009962602E+00
 -7.463300264897E+00 -7.511942348377E+00 -7.558922456994E+00 -7.604228676135E+00
 -7.647851008861E+00 -7.689781453338E+00 -7.730014081261E+00 -7.768545116956E+00
 -7.805373016843E+00 -7.840498548813E+00 -7.873924871038E+00 -7.905657609606E+00
 -7.935704934312E+00 -7.964077631807E+00 -7.990789175214E+00 -8.015855789201E+00
 -8.039296509394E+00 -8.061133234870E+00 -8.081390772393E+00 -8.100096870888E+00
 -8.117282244596E+00 -8.132980583201E+00 -8.147228547160E+00 -8.160065746396E+00
 -8.171534700438E+00 -8.181680778084E+00 -8.190552114649E+00 -8.198199504895E+00
 -8.204676269779E+00 -8.210038095280E+00 -8.214342841672E+00 -8.217650321789E+00
 -8.220022047046E+00 -8.221520940193E+00 -8.222211014100E+00 -8.222157016156E+00
 -8.221424038202E+00 -8.220077092324E+00 -8.218180653171E+00 -8.215798167900E+00
 -8.212991535277E+00 -8.209820555840E+00 -8.206342355511E+00 -8.202610785444E+00