<?xml version="1.0" encoding="UTF-8" ?>
<psml version="1.1" energy_unit="hartree" length_unit="bohr"
 uuid="86d33090-1d65-11e8-5037-7092df57fe7c"
 xmlns="http://esl.cecam.org/PSML/ns/1.1">
<provenance creator="ONCVPSP-3.3.0+psml-3.3.0-73 (scalar-relativistic)"
 date="2018-03-01">
<annotation action="semilocal-pseudopotential-generation"
 action-cont="projectors-generation" />
<input-file name="oncvpsp-input">
<![CDATA[# atsym z nc nv iexc psfile
As 33 3 5 -116133 upf
# n l f
1 0 2.0
2 0 2.0
2 1 6.0
3 0 2.0
3 1 6.0
3 2 10.0
4 0 2.0
4 1 3.0
# lmax
2
# l rc ep ncon nbas qcut
0 1.2 0.0 4 7 9.6
1 1.4 0.0 4 7 10.0
2 1.6 0.0 4 7 10.0
# lloc lpopt rc5 dvloc0
4 5 1.2 0.0
# l nproj debl
0 2 1.0
1 2 1.0
2 2 3.5
# icmod fcfact rcfact
3 2.7 1.5
# epsh1 epsh2 depsh
-12.0 12.0 0.02
# rlmax drl
6.0 0.01
 0
]]>
</input-file>
</provenance>
<pseudo-atom-spec atomic-label="As" atomic-number="33" z-pseudo="23"
 flavor="Hamann&apos;s oncvpsp" relativity="scalar" spin-dft="no"
 core-corrections="yes">
<annotation pseudo-energy="-302.378640981" />
<exchange-correlation>
<annotation oncvpsp-xc-code="-116133" oncvpsp-xc-type="libxc-interface" />
<libxc-info number-of-functionals="2">
<functional name="Perdew, Burke &amp; Ernzerhof SOL (GGA)" type="exchange"
 id="116" />
<functional name="Perdew, Burke &amp; Ernzerhof SOL (GGA)" type="correlation"
 id="133" />
</libxc-info>
</exchange-correlation>
<valence-configuration total-valence-charge="23">
<shell n="3" l="s" occupation="2" />
<shell n="3" l="p" occupation="6" />
<shell n="3" l="d" occupation="10" />
<shell n="4" l="s" occupation="2" />
<shell n="4" l="p" occupation="3" />
</valence-configuration>
</pseudo-atom-spec>
<grid npts="457">
<annotation type="sampled from oncvpsp log grid"
 recipe="r(i:1..N) = r1*exp(a*(i-1)) + r=0; resampled"
 recipe-cont="r1: scale; a: step" scale="0.151515151515E-04"
 step="0.119285708653E-01" delta="0.500000000000E-02" rmax="44.2319075471" />
<grid-data>
  0.000000000000E+00  5.050863755537E-03  1.008870397413E-02  1.513466471039E-02
  2.015139445527E-02  2.527754206661E-02  3.059306869357E-02  3.572479163279E-02
  4.073383894775E-02  4.589448142461E-02  5.109578544660E-02  5.621201837620E-02
  6.184054090387E-02  6.722593745724E-02  7.308032240581E-02  7.850250761159E-02
  8.432699115759E-02  8.950950742873E-02  9.501052759205E-02  1.008496260636E-01
  1.070475802516E-01  1.122790953457E-01  1.177662794620E-01  1.235216273841E-01
  1.295582445274E-01  1.358898767811E-01  1.425309418088E-01  1.477238753743E-01
  1.531060068687E-01  1.586842294782E-01  1.644656875329E-01  1.704577856578E-01
  1.766681982559E-01  1.831048793374E-01  1.897760727067E-01  1.966903225206E-01
  2.038564842315E-01  2.112837359290E-01  2.163849704493E-01  2.216093691758E-01
  2.269599057852E-01  2.324396257505E-01  2.380516480746E-01  2.437991670657E-01
  2.496854541554E-01  2.557138597605E-01  2.618878151905E-01  2.682108346005E-01
  2.746865169911E-01  2.813185482573E-01  2.881107032865E-01  2.950668481066E-01
  3.021909420873E-01  3.094870401931E-01  3.169592952915E-01  3.246119605170E-01
  3.324493916917E-01  3.404760498047E-01  3.486965035512E-01  3.571154319329E-01
  3.657376269215E-01  3.745679961859E-01  3.836115658858E-01  3.928734835326E-01
  4.023590209190E-01  4.120735771201E-01  4.220226815661E-01  4.270869537448E-01
  4.322119971898E-01  4.373985411561E-01  4.426473236499E-01  4.479590915337E-01
  4.533346006321E-01  4.587746158397E-01  4.642799112298E-01  4.698512701646E-01
  4.754894854065E-01  4.811953592314E-01  4.869697035422E-01  4.928133399847E-01
  4.987271000645E-01  5.047118252653E-01  5.107683671685E-01  5.168975875745E-01
  5.231003586254E-01  5.293775629289E-01  5.357300936840E-01  5.421588548082E-01
  5.486647610659E-01  5.552487381987E-01  5.619117230571E-01  5.686546637338E-01
  5.754785196986E-01  5.823842619350E-01  5.893728730782E-01  5.964453475551E-01
  6.036026917258E-01  6.108459240265E-01  6.181760751148E-01  6.255941880162E-01
  6.331013182724E-01  6.406985340917E-01  6.483869165008E-01  6.561675594988E-01
  6.640415702128E-01  6.720100690553E-01  6.800741898840E-01  6.882350801626E-01
  6.964939011246E-01  7.048518279380E-01  7.133100498733E-01  7.218697704718E-01
  7.305322077174E-01  7.392985942101E-01  7.481701773406E-01  7.571482194687E-01
  7.662339981023E-01  7.754288060795E-01  7.847339517525E-01  7.941507591735E-01
  8.036805682836E-01  8.133247351030E-01  8.230846319242E-01  8.329616475073E-01
  8.429571872774E-01  8.530726735247E-01  8.633095456070E-01  8.736692601543E-01
  8.841532912762E-01  8.947631307715E-01  9.055002883407E-01  9.163662918008E-01
  9.273626873024E-01  9.384910395501E-01  9.497529320247E-01  9.611499672090E-01
  9.726837668155E-01  9.843559720172E-01  9.961682436815E-01  1.008122262606E+00
  1.020219729757E+00  1.032462366514E+00  1.044851914912E+00  1.057390137891E+00
  1.070078819546E+00  1.082919765380E+00  1.095914802565E+00  1.109065780196E+00
  1.122374569558E+00  1.135843064393E+00  1.149473181165E+00  1.163266859339E+00
  1.177226061651E+00  1.191352774391E+00  1.205649007684E+00  1.220116795776E+00
  1.234758197326E+00  1.249575295693E+00  1.264570199242E+00  1.279745041633E+00
  1.295101982132E+00  1.310643205918E+00  1.326370924389E+00  1.342287375482E+00
  1.358394823987E+00  1.374695561875E+00  1.391191908618E+00  1.407886211521E+00
  1.424780846059E+00  1.441878216212E+00  1.459180754807E+00  1.476690923864E+00
  1.494411214951E+00  1.512344149530E+00  1.530492279324E+00  1.548858186676E+00
  1.567444484916E+00  1.586253818735E+00  1.605288864560E+00  1.624552330935E+00
  1.644046958906E+00  1.663775522413E+00  1.683740828682E+00  1.703945718626E+00
  1.724393067250E+00  1.745085784057E+00  1.766026813465E+00  1.787219135227E+00
  1.808665764850E+00  1.830369754028E+00  1.852334191076E+00  1.874562201369E+00
  1.897056947786E+00  1.919821631159E+00  1.942859490733E+00  1.966173804622E+00
  1.989767890277E+00  2.013645104960E+00  2.037808846220E+00  2.062262552375E+00
  2.087009703003E+00  2.112053819439E+00  2.137398465272E+00  2.163047246856E+00
  2.189003813818E+00  2.215271859584E+00  2.241855121899E+00  2.268757383362E+00
  2.295982471962E+00  2.323534261625E+00  2.351416672765E+00  2.379633672838E+00
  2.408189276912E+00  2.437087548235E+00  2.466332598814E+00  2.495928590000E+00
  2.525879733080E+00  2.556190289877E+00  2.586864573355E+00  2.617906948235E+00
  2.649321831614E+00  2.681113693594E+00  2.713287057917E+00  2.745846502612E+00
  2.778796660643E+00  2.812142220571E+00  2.845887927218E+00  2.880038582344E+00
  2.914599045332E+00  2.949574233876E+00  2.984969124683E+00  3.020788754179E+00
  3.057038219229E+00  3.093722677860E+00  3.130847349994E+00  3.168417518194E+00
  3.206438528413E+00  3.244915790754E+00  3.283854780243E+00  3.323261037606E+00
  3.363140170057E+00  3.403497852097E+00  3.444339826323E+00  3.485671904239E+00
  3.527499967089E+00  3.569829966694E+00  3.612667926295E+00  3.656019941410E+00
  3.699892180707E+00  3.744290886876E+00  3.789222377518E+00  3.834693046048E+00
  3.880709362601E+00  3.927277874952E+00  3.974405209452E+00  4.022098071965E+00
  4.070363248829E+00  4.119207607815E+00  4.168638099108E+00  4.218661756298E+00
  4.269285697373E+00  4.320517125742E+00  4.372363331251E+00  4.424831691226E+00
  4.477929671520E+00  4.531664827579E+00  4.586044805510E+00  4.641077343176E+00
  4.696770271294E+00  4.753131514549E+00  4.810169092724E+00  4.867891121837E+00
  4.926305815299E+00  4.985421485082E+00  5.045246542903E+00  5.105789501418E+00
  5.167058975435E+00  5.229063683140E+00  5.291812447338E+00  5.355314196706E+00
  5.419577967067E+00  5.484612902671E+00  5.550428257503E+00  5.617033396593E+00
  5.684437797353E+00  5.752651050921E+00  5.821682863532E+00  5.891543057894E+00
  5.962241574589E+00  6.033788473484E+00  6.106193935166E+00  6.179468262388E+00
  6.253621881536E+00  6.328665344115E+00  6.404609328244E+00  6.481464640183E+00
  6.559242215865E+00  6.637953122456E+00  6.717608559925E+00  6.798219862644E+00
  6.879798500996E+00  6.962356083008E+00  7.045904356004E+00  7.130455208276E+00
  7.216020670775E+00  7.302612918825E+00  7.390244273851E+00  7.478927205137E+00
  7.568674331599E+00  7.659498423578E+00  7.751412404661E+00  7.844429353517E+00
  7.938562505759E+00  8.033825255828E+00  8.130231158898E+00  8.227793932805E+00
  8.326527459998E+00  8.426445789518E+00  8.527563138992E+00  8.629893896660E+00
  8.733452623420E+00  8.838254054901E+00  8.944313103560E+00  9.051644860803E+00
  9.160264599132E+00  9.270187774322E+00  9.381430027614E+00  9.494007187945E+00
  9.607935274201E+00  9.723230497491E+00  9.839909263461E+00  9.957988174622E+00
  1.007748403272E+01  1.019841384111E+01  1.032079480720E+01  1.044464434489E+01
  1.056998007703E+01  1.069681983795E+01  1.082518167601E+01  1.095508385612E+01
  1.108654486239E+01  1.121958340074E+01  1.135421840155E+01  1.149046902237E+01
  1.162835465064E+01  1.176789490645E+01  1.190910964532E+01  1.205201896107E+01
  1.219664318860E+01  1.234300290686E+01  1.249111894175E+01  1.264101236905E+01
  1.279270451748E+01  1.294621697169E+01  1.310157157535E+01  1.325879043425E+01
  1.341789591946E+01  1.357891067049E+01  1.374185759854E+01  1.390675988972E+01
  1.407364100840E+01  1.424252470050E+01  1.441343499691E+01  1.458639621687E+01
  1.476143297147E+01  1.493857016713E+01  1.511783300913E+01  1.529924700524E+01
  1.548283796931E+01  1.566863202494E+01  1.585665560924E+01  1.604693547655E+01
  1.623949870227E+01  1.643437268670E+01  1.663158515894E+01  1.683116418084E+01
  1.703313815101E+01  1.723753580883E+01  1.744438623853E+01  1.765371887339E+01
  1.786556349987E+01  1.807995026187E+01  1.829690966501E+01  1.851647258100E+01
  1.873867025197E+01  1.896353429499E+01  1.919109670653E+01  1.942138986701E+01
  1.965444654541E+01  1.989029990396E+01  2.012898350281E+01  2.037053130484E+01
  2.061497768050E+01  2.086235741266E+01  2.111270570162E+01  2.136605817003E+01
  2.162245086807E+01  2.188192027849E+01  2.214450332183E+01  2.241023736170E+01
  2.267916021004E+01  2.295131013256E+01  2.322672585415E+01  2.350544656440E+01
  2.378751192317E+01  2.407296206625E+01  2.436183761104E+01  2.465417966238E+01
  2.495002981832E+01  2.524943017614E+01  2.555242333826E+01  2.585905241832E+01
  2.616936104734E+01  2.648339337990E+01  2.680119410046E+01  2.712280842967E+01
  2.744828213082E+01  2.777766151639E+01  2.811099345459E+01  2.844832537605E+01
  2.878970528056E+01  2.913518174393E+01  2.948480392485E+01  2.983862157195E+01
  3.019668503081E+01  3.055904525118E+01  3.092575379420E+01  3.129686283973E+01
  3.167242519381E+01  3.205249429613E+01  3.243712422768E+01  3.282636971842E+01
  3.322028615504E+01  3.361892958890E+01  3.402235674397E+01  3.443062502489E+01
  3.484379252519E+01  3.526191803549E+01  3.568506105192E+01  3.611328178454E+01
  3.654664116596E+01  3.698520085995E+01  3.742902327027E+01  3.787817154951E+01
  3.833270960811E+01  3.879270212340E+01  3.925821454888E+01  3.972931312347E+01
  4.020606488095E+01  4.068853765952E+01  4.117680011144E+01  4.167092171277E+01
  4.217097277333E+01  4.267702444661E+01  4.318914873997E+01  4.370741852485E+01
  4.423190754715E+01
</grid-data>
</grid>
<valence-charge total-charge="23" is-unscreening-charge="yes"
 rescaled-to-z-pseudo="no">
<radfunc>
<data npts="457">
  4.183216238152E+01  4.184549507078E+01  4.188534255520E+01  4.195179431203E+01
  4.204412784651E+01  4.216543536738E+01  4.231987330422E+01  4.249648795881E+01
  4.269477815243E+01  4.292562169989E+01  4.318531158084E+01  4.346696117669E+01
  4.380649180782E+01  4.416008846918E+01  4.457587605169E+01  4.498966835058E+01
  4.546434664877E+01  4.591248707537E+01  4.641417302678E+01  4.697532290050E+01
  4.760237414021E+01  4.815612465338E+01  4.876029924562E+01  4.941890123526E+01
  5.013611896363E+01  5.091630051226E+01  5.176391729727E+01  5.244661712038E+01
  5.317172861535E+01  5.394115726438E+01  5.475676648402E+01  5.562034841610E+01
  5.653358914268E+01  5.749802755628E+01  5.851500705132E+01  5.958561914288E+01
  6.071063807052E+01  6.189044541290E+01  6.270739612695E+01  6.354849879782E+01
  6.441345831087E+01  6.530183593471E+01  6.621303262184E+01  6.714627107733E+01
  6.810057658283E+01  6.907475657976E+01  7.006737903692E+01  7.107674965313E+01
  7.210088797695E+01  7.313750256192E+01  7.418396532001E+01  7.523728528632E+01
  7.629408206735E+01  7.735055931221E+01  7.840247862280E+01  7.944513440421E+01
  8.047333025183E+01  8.148135757529E+01  8.246297727154E+01  8.341140537870E+01
  8.431930376638E+01  8.517877704504E+01  8.598137700192E+01  8.671811599046E+01
  8.737949080653E+01  8.795551867173E+01  8.843578700161E+01  8.863665559605E+01
  8.880951865504E+01  8.895298558700E+01  8.906565432636E+01  8.914611495418E+01
  8.919295364279E+01  8.920475693274E+01  8.918011634856E+01  8.911763335839E+01
  8.901592468023E+01  8.887362793554E+01  8.868940764810E+01  8.846196158354E+01
  8.819002742132E+01  8.787238974798E+01  8.750788735640E+01  8.709542083173E+01
  8.663396040058E+01  8.612255401501E+01  8.556033563829E+01  8.494653369398E+01
  8.428047963475E+01  8.356161658152E+01  8.278950797816E+01  8.196384620101E+01
  8.108446105678E+01  8.015132809689E+01  7.916457667055E+01  7.812449763377E+01
  7.703155062666E+01  7.588637082658E+01  7.468977508146E+01  7.344276732384E+01
  7.214654316432E+01  7.080249356179E+01  6.941220746754E+01  6.797747334158E+01
  6.650027944214E+01  6.498281279341E+01  6.342745674238E+01  6.183678702341E+01
  6.021356625846E+01  5.856073683269E+01  5.688141209838E+01  5.517886587586E+01
  5.345652023748E+01  5.171793158015E+01  4.996677501340E+01  4.820682711230E+01
  4.644194710937E+01  4.467605662479E+01  4.291311806007E+01  4.115711180748E+01
  3.941201245341E+01  3.768176417986E+01  3.597025559302E+01  3.428129423055E+01
  3.261858101974E+01  3.098568497611E+01  2.938601844572E+01  2.782281320387E+01
  2.629909772709E+01  2.481767595465E+01  2.338110784863E+01  2.199169204838E+01
  2.065145089595E+01  1.936211808232E+01  1.812512913214E+01  1.694161490591E+01
  1.581239825389E+01  1.473799390722E+01  1.371861163799E+01  1.275416266413E+01
  1.184426921681E+01  1.098827713001E+01  1.018527125515E+01  9.434093449304E+00
  8.733362836656E+00  8.081497998851E+00  7.476740714462E+00  6.917180840603E+00
  6.400781912649E+00  5.925407031563E+00  5.488844612885E+00  5.088833587090E+00
  4.723087667258E+00  4.389318336059E+00  4.085256248660E+00  3.808670930150E+00
  3.557388870102E+00  3.329309427484E+00  3.122417363506E+00  2.934793158897E+00
  2.764620942198E+00  2.610194252317E+00  2.469919725585E+00  2.342318886576E+00
  2.226028238461E+00  2.119797867796E+00  2.022488786701E+00  1.933069234619E+00
  1.850609819147E+00  1.774276830911E+00  1.703325037486E+00  1.637092831381E+00
  1.574998038466E+00  1.516532812057E+00  1.461258660608E+00  1.408801317971E+00
  1.358845517678E+00  1.311129671817E+00  1.265440459763E+00  1.221605805299E+00
  1.179482072871E+00  1.138940050543E+00  1.099862099516E+00  1.062143091982E+00
  1.025688570872E+00  9.904140102583E-01  9.562439632320E-01  9.231112701399E-01
  8.909563121525E-01  8.597263093667E-01  8.293746622282E-01  7.998603352887E-01
  7.711472820265E-01  7.432039093965E-01  7.160025807016E-01  6.895191553203E-01
  6.637325637865E-01  6.386244166915E-01  6.141786458732E-01  5.903811762725E-01
  5.672196270487E-01  5.446830402665E-01  5.227616357093E-01  5.014465902978E-01
  4.807298406416E-01  4.606039072779E-01  4.410617391867E-01  4.220965772114E-01
  4.037018350519E-01  3.858709965406E-01  3.685975279580E-01  3.518748041878E-01
  3.356960475641E-01  3.200542783153E-01  3.049422755132E-01  2.903525476071E-01
  2.762773115125E-01  2.627084793932E-01  2.496376522784E-01  2.370561197173E-01
  2.249548647185E-01  2.133245732732E-01  2.021556478097E-01  1.914382239693E-01
  1.811621901435E-01  1.713172092547E-01  1.618927423051E-01  1.528780732595E-01
  1.442623348700E-01  1.360345350849E-01  1.281835837229E-01  1.206983191285E-01
  1.135675345567E-01  1.067800040662E-01  1.003245077307E-01  9.418985600416E-02
  8.836491311178E-02  8.283861933709E-02  7.760001213199E-02  7.263824597375E-02
  6.794261092108E-02  6.350254983774E-02  5.930767426790E-02  5.534777896179E-02
  5.161285506275E-02  4.809310197728E-02  4.477893795919E-02  4.166100944605E-02
  3.873019919218E-02  3.597763324666E-02  3.339468682782E-02  3.097298914713E-02
  2.870442723599E-02  2.658114882840E-02  2.459556435126E-02  2.274034807211E-02
  2.100843845243E-02  1.939303775161E-02  1.788761092537E-02  1.648588385947E-02
  1.518184097859E-02  1.396972226826E-02  1.284401974728E-02  1.179947342709E-02
  1.083106679478E-02  9.934021856268E-03  9.103793776830E-03  8.336065156445E-03
  7.626739978234E-03  6.971937268608E-03  6.367984508217E-03  5.811410832943E-03
  5.298940064075E-03  4.827483606411E-03  4.394133252295E-03  3.996153928545E-03
  3.630976421821E-03  3.296190116330E-03  2.989535775774E-03  2.708898399296E-03
  2.452300178799E-03  2.217893582506E-03  2.003954587027E-03  1.808876077562E-03
  1.631161433188E-03  1.469418311566E-03  1.322352644824E-03  1.188762855900E-03
  1.067534302276E-03  9.576339517974E-04  8.581052932159E-04  7.680634822009E-04
  6.866907218262E-04  6.132318750170E-04  5.469903050834E-04  4.873239393065E-04
  4.336415495635E-04  3.853992431801E-04  3.420971565662E-04  3.032763437294E-04
  2.685158514355E-04  2.374299726048E-04  2.096656694670E-04  1.849001580363E-04
  1.628386455933E-04  1.432122130592E-04  1.257758343990E-04  1.103065254851E-04
  9.660161517577E-05  8.447713169725E-05  7.376629777003E-05  6.431812825197E-05
  5.599612442085E-05  4.867705932340E-05  4.224984892571E-05  3.661450410718E-05
  3.168115877936E-05  2.736916966186E-05  2.360628349360E-05  2.032786765554E-05
  1.747620037603E-05  1.499981687381E-05  1.285290796173E-05  1.099476779249E-05
  9.389287577175E-06  8.004492250225E-06  6.812117190641E-06  5.787222241903E-06
  4.907840401055E-06  4.154658672920E-06  3.510728708200E-06  2.961204964863E-06
  2.493108250816E-06  2.095112622493E-06  1.757353728565E-06  1.471256800329E-06
  1.229382600301E-06  1.025289747871E-06  8.534119452399E-07  7.089487281624E-07
  5.877684637619E-07  4.863224118953E-07  4.015687568033E-07  3.309056020446E-07
  2.721120037838E-07  2.232961952993E-07  1.828502290414E-07  1.494103316670E-07
  1.218223322348E-07  9.911158419727E-08  8.045685805496E-08  6.516773365277E-08
  5.266506921746E-08  4.246416851422E-08  3.416030809917E-08  2.741632374129E-08
  2.195198886769E-08  1.753494854249E-08  1.397300021759E-08  1.110753748961E-08
  8.807995556283E-09  6.967157179682E-09  5.497195918080E-09  4.326349364972E-09
  3.396129303431E-09  2.658988212050E-09  2.076372599612E-09  1.617103345344E-09
  1.256031715999E-09  9.729271465102E-10  7.515593241315E-10  5.789427140368E-10
  4.447165053430E-10  3.406371295510E-10  2.601640893359E-10  1.981229072534E-10
  1.504316266819E-10  1.138795296559E-10  8.594863018728E-11  6.467010336076E-11
  4.850916064538E-11  3.627301628552E-11  2.703753968965E-11  2.008898176203E-11
  1.487782289118E-11  1.098233737978E-11  8.079921203649E-12  5.924602343251E-12
  4.329458562379E-12  3.152917509266E-12  2.288117802679E-12  1.654675301398E-12
  1.192332745407E-12  8.560790267994E-13  6.124111986791E-13  4.364818746050E-13
  3.099301536429E-13  2.192383064571E-13  1.544913800658E-13  1.084444286676E-13
  7.582372879211E-14  5.280528642629E-14  3.662716093058E-14  2.530239674164E-14
  1.740729618192E-14  1.192588630914E-14  8.136130181211E-15  5.527018184854E-15
  3.738413348918E-15  2.517587257311E-15  1.687950176269E-15  1.126650995322E-15
  7.486010020453E-16  4.951295680342E-16  3.259648174523E-16  2.135903617573E-16
  1.392922581970E-16  9.040277109904E-17  5.838760310635E-17  3.752477096434E-17
  2.399650187267E-17  1.526806055207E-17  9.664935194497E-18  6.086472299809E-18
  3.812902618980E-18  2.375964327552E-18  1.472608450058E-18  0.000000000000E+00
  0.000000000000E+00  0.000000000000E+00  0.000000000000E+00  0.000000000000E+00
  0.000000000000E+00  0.000000000000E+00  0.000000000000E+00  0.000000000000E+00
  0.000000000000E+00  0.000000000000E+00  0.000000000000E+00  0.000000000000E+00
  0.000000000000E+00  0.000000000000E+00  0.000000000000E+00  0.000000000000E+00
  0.000000000000E+00  0.000000000000E+00  0.000000000000E+00  0.000000000000E+00
  0.000000000000E+00  0.000000000000E+00  0.000000000000E+00  0.000000000000E+00
  0.000000000000E+00  0.000000000000E+00  0.000000000000E+00  0.000000000000E+00
  0.000000000000E+00
</data>
</radfunc>
</valence-charge>
<pseudocore-charge matching-radius="0.320762806835"
 number-of-continuous-derivatives="4">
<annotation model-charge-form="Teter function with specified parameters" />
<radfunc>
<data npts="290">
  2.255766584026E+02  2.254981314574E+02  2.252635126545E+02  2.248725034447E+02
  2.243297291463E+02  2.236175631907E+02  2.227124224879E+02  2.216793990947E+02
  2.205222514221E+02  2.191786689171E+02  2.176717285323E+02  2.160427787210E+02
  2.140865476406E+02  2.120579441340E+02  2.096838322556E+02  2.073331853447E+02
  2.046514426209E+02  2.021340734136E+02  1.993325028290E+02  1.962195426458E+02
  1.927667133397E+02  1.897399788329E+02  1.864615602686E+02  1.829161154629E+02
  1.790885445352E+02  1.749642988850E+02  1.705297550470E+02  1.669927772486E+02
  1.632698283826E+02  1.593571487834E+02  1.552518718767E+02  1.509521940657E+02
  1.464575585354E+02  1.417688517818E+02  1.368886109565E+02  1.318212392525E+02
  1.265732255402E+02  1.211533632877E+02  1.174501259039E+02  1.136794958310E+02
  1.098460468020E+02  1.059549334823E+02  1.020119089484E+02  9.802333803083E+01
  9.399620572214E+01  8.993811980374E+01  8.585730680762E+01  8.176260040246E+01
  7.766342128618E+01  7.356974767980E+01  6.949207555594E+01  6.544136780467E+01
  6.142899164356E+01  5.746664372341E+01  5.356626256982E+01  4.973992823812E+01
  4.599974934708E+01  4.235773799755E+01  3.882567347436E+01  3.541495607086E+01
  3.213645285951E+01  2.900033774853E+01  2.601592870128E+01  2.319152553235E+01
  2.053425221001E+01  1.804990806072E+01  1.574283265552E+01  1.465669858684E+01
  1.361578942350E+01  1.262018913073E+01  1.166987314717E+01  1.076470715400E+01
  9.904446406649E+00  9.088735660464E+00  8.317109718470E+00  7.588994625255E+00
  6.903709526383E+00  6.260469207561E+00  5.658387321961E+00  5.096480307671E+00
  4.573671990562E+00  4.088798860250E+00  3.640615999288E+00  3.227803637566E+00
  2.848974295582E+00  2.502680471875E+00  2.187422821423E+00  1.901658763593E+00
  1.643811450160E+00  1.412279016425E+00  1.205444031462E+00  1.021683057394E+00
  8.593762223868E-01  7.169167079887E-01  5.927200486455E-01  4.852331399411E-01
  3.929428523636E-01  3.143841494114E-01  2.481476126546E-01  1.928862820477E-01
  1.473217273639E-01  1.102492760729E-01  8.054233424122E-02  5.715574999441E-02
  3.912818355581E-02  2.558346365996E-02  1.573092694418E-02  8.864754424620E-03
  4.362336989145E-03  1.681719572452E-03  3.581908756746E-04  1.016853338552E-07
  2.840095635814E-04  9.492604579873E-04  1.792128174906E-03  2.659640278236E-03
  3.443223478295E-03  4.072302705213E-03  4.507985654567E-03  4.736958597137E-03
  4.765709728447E-03  4.615183496196E-03  4.315953516301E-03  3.903983333150E-03
  3.417023979949E-03  2.891675739907E-03  2.361119470996E-03  1.853501163537E-03
  1.390932899016E-03  9.890549000277E-04  6.570876752225E-04  3.982910375598E-04
  2.107385344636E-04  8.831192099922E-05  2.182087030549E-05  1.580599789659E-07
  1.140877491295E-05  4.384667415278E-05  8.676262325759E-05  1.310905667820E-04
  1.698122620250E-04  1.981402143793E-04  2.134942623260E-04  2.153009643140E-04
  2.046554142380E-04  1.838917625754E-04  1.561112358422E-04  1.247148332963E-04
  9.298246619496E-05  6.373172552865E-05  3.907861069701E-05  2.031050020722E-05
  7.869562653050E-06  1.433841192534E-06  7.441813502612E-08  2.461166553352E-06
  7.087095144519E-06  1.248229255507E-05  1.739269393574E-05  2.090568355188E-05
  2.251298393952E-05  2.211025715314E-05  1.994120663977E-05  1.650067130638E-05
  1.241543898567E-05  8.322818232515E-06  4.765355251839E-06  2.115851752924E-06
  5.407856310707E-07  3.374630949591E-09  0.000000000000E+00  0.000000000000E+00
  0.000000000000E+00  0.000000000000E+00  0.000000000000E+00  0.000000000000E+00
  0.000000000000E+00  0.000000000000E+00  0.000000000000E+00  0.000000000000E+00
  0.000000000000E+00  0.000000000000E+00  0.000000000000E+00  0.000000000000E+00
  0.000000000000E+00  0.000000000000E+00  0.000000000000E+00  0.000000000000E+00
  0.000000000000E+00  0.000000000000E+00  0.000000000000E+00  0.000000000000E+00
  0.000000000000E+00  0.000000000000E+00  0.000000000000E+00  0.000000000000E+00
  0.000000000000E+00  0.000000000000E+00  0.000000000000E+00  0.000000000000E+00
  0.000000000000E+00  0.000000000000E+00  0.000000000000E+00  0.000000000000E+00
  0.000000000000E+00  0.000000000000E+00  0.000000000000E+00  0.000000000000E+00
  0.000000000000E+00  0.000000000000E+00  0.000000000000E+00  0.000000000000E+00
  0.000000000000E+00  0.000000000000E+00  0.000000000000E+00  0.000000000000E+00
  0.000000000000E+00  0.000000000000E+00  0.000000000000E+00  0.000000000000E+00
  0.000000000000E+00  0.000000000000E+00  0.000000000000E+00  0.000000000000E+00
  0.000000000000E+00  0.000000000000E+00  0.000000000000E+00  0.000000000000E+00
  0.000000000000E+00  0.000000000000E+00  0.000000000000E+00  0.000000000000E+00
  0.000000000000E+00  0.000000000000E+00  0.000000000000E+00  0.000000000000E+00
  0.000000000000E+00  0.000000000000E+00  0.000000000000E+00  0.000000000000E+00
  0.000000000000E+00  0.000000000000E+00  0.000000000000E+00  0.000000000000E+00
  0.000000000000E+00  0.000000000000E+00  0.000000000000E+00  0.000000000000E+00
  0.000000000000E+00  0.000000000000E+00  0.000000000000E+00  0.000000000000E+00
  0.000000000000E+00  0.000000000000E+00  0.000000000000E+00  0.000000000000E+00
  0.000000000000E+00  0.000000000000E+00  0.000000000000E+00  0.000000000000E+00
  0.000000000000E+00  0.000000000000E+00  0.000000000000E+00  0.000000000000E+00
  0.000000000000E+00  0.000000000000E+00  0.000000000000E+00  0.000000000000E+00
  0.000000000000E+00  0.000000000000E+00  0.000000000000E+00  0.000000000000E+00
  0.000000000000E+00  0.000000000000E+00  0.000000000000E+00  0.000000000000E+00
  0.000000000000E+00  0.000000000000E+00  0.000000000000E+00  0.000000000000E+00
  0.000000000000E+00  0.000000000000E+00  0.000000000000E+00  0.000000000000E+00
  0.000000000000E+00  0.000000000000E+00  0.000000000000E+00  0.000000000000E+00
  0.000000000000E+00  0.000000000000E+00
</data>
</radfunc>
</pseudocore-charge>
<semilocal-potentials set="scalar_relativistic">
<slps n="3" l="s" rc="1.20564900768" eref="-6.97891071880">
<radfunc>
<data npts="290">
 -4.183925837628E+01 -4.183902137337E+01 -4.183831286837E+01 -4.183713087903E+01
 -4.183548757681E+01 -4.183332686809E+01 -4.183057303813E+01 -4.182741939740E+01
 -4.182387280349E+01 -4.181973554565E+01 -4.181506968828E+01 -4.180999435363E+01
 -4.180385373720E+01 -4.179743080249E+01 -4.178983873277E+01 -4.178223734151E+01
 -4.177345669693E+01 -4.176510282545E+01 -4.175567139963E+01 -4.174501544969E+01
 -4.173296479001E+01 -4.172218802356E+01 -4.171027580227E+01 -4.169709524300E+01
 -4.168249442821E+01 -4.166629897857E+01 -4.164830792839E+01 -4.163349775473E+01
 -4.161743591232E+01 -4.159999728627E+01 -4.158104137511E+01 -4.156041012564E+01
 -4.153792546068E+01 -4.151338646092E+01 -4.148656615941E+01 -4.145720790464E+01
 -4.142502124760E+01 -4.138967731011E+01 -4.136417865772E+01 -4.133698992493E+01
 -4.130797823958E+01 -4.127699929285E+01 -4.124389642422E+01 -4.120849967047E+01
 -4.117062479069E+01 -4.113007228548E+01 -4.108662643551E+01 -4.104005439397E+01
 -4.099010537828E+01 -4.093651001882E+01 -4.087897993572E+01 -4.081720762701E+01
 -4.075086676008E+01 -4.067961295936E+01 -4.060308517065E+01 -4.052090765015E+01
 -4.043269256733E+01 -4.033804312159E+01 -4.023655695710E+01 -4.012782953132E+01
 -4.001145698074E+01 -3.988703797489E+01 -3.975417410336E+01 -3.961246853498E+01
 -3.946152301610E+01 -3.930093367429E+01 -3.913028644643E+01 -3.904105794276E+01
 -3.894915312411E+01 -3.885451585295E+01 -3.875708891445E+01 -3.865681405668E+01
 -3.855363206269E+01 -3.844748285070E+01 -3.833830559738E+01 -3.822603887899E+01
 -3.811062082553E+01 -3.799198928376E+01 -3.787008198627E+01 -3.774483672518E+01
 -3.761619153065E+01 -3.748408485562E+01 -3.734845576938E+01 -3.720924416311E+01
 -3.706639097069E+01 -3.691983840754E+01 -3.676953022928E+01 -3.661541201084E+01
 -3.645743144428E+01 -3.629553865241E+01 -3.612968651255E+01 -3.595983098383E+01
 -3.578593142934E+01 -3.560795092417E+01 -3.542585654012E+01 -3.523961959818E+01
 -3.504921588190E+01 -3.485462580604E+01 -3.465583453814E+01 -3.445283207303E+01
 -3.424561326356E+01 -3.403417781340E+01 -3.381853024025E+01 -3.359867981950E+01
 -3.337464051932E+01 -3.314643093849E+01 -3.291407425765E+01 -3.267759821340E+01
 -3.243703510286E+01 -3.219242182426E+01 -3.194379995677E+01 -3.169121588030E+01
 -3.143472093415E+01 -3.117437161121E+01 -3.091022978309E+01 -3.064236295028E+01
 -3.037084451082E+01 -3.009575404045E+01 -2.981717757727E+01 -2.953520790415E+01
 -2.924994482267E+01 -2.896149541300E+01 -2.866997427535E+01 -2.837550374969E+01
 -2.807821411204E+01 -2.777824374822E+01 -2.747573930813E+01 -2.717085584809E+01
 -2.686375697335E+01 -2.655461499997E+01 -2.624361116381E+01 -2.593093591577E+01
 -2.561678935616E+01 -2.530138187823E+01 -2.498493510984E+01 -2.466768326397E+01
 -2.434987503037E+01 -2.403177616092E+01 -2.371367291791E+01 -2.339587656296E+01
 -2.307872906350E+01 -2.276261018015E+01 -2.244794607085E+01 -2.213521950852E+01
 -2.182498175992E+01 -2.151786612108E+01 -2.121460305539E+01 -2.091603684243E+01
 -2.062314362770E+01 -2.033705077509E+01 -2.005905747798E+01 -1.979065670030E+01