<?xml version="1.0" encoding="UTF-8" ?>
<psml version="1.1" energy_unit="hartree" length_unit="bohr"
 uuid="eeab9140-1d5f-11e8-74b7-3ad37f7fa506"
 xmlns="http://esl.cecam.org/PSML/ns/1.1">
<provenance creator="ONCVPSP-3.3.0+psml-3.3.0-73 (scalar-relativistic)"
 date="2018-03-01">
<annotation action="semilocal-pseudopotential-generation"
 action-cont="projectors-generation" />
<input-file name="oncvpsp-input">
<![CDATA[# atsym z nc nv iexc psfile
As 33 5 3 -116133 upf
# n l f
1 0 2.0
2 0 2.0
2 1 6.0
3 0 2.0
3 1 6.0
3 2 10.0
4 0 2.0
4 1 3.0
# lmax
2
# l rc ep ncon nbas qcut
0 1.75 0.0 3 8 5.3
1 1.7 0.0 4 8 6.0
2 1.8 0.0 4 7 9.0
# lloc lpopt rc5 dvloc0
4 5 1.6 0.0
# l nproj debl
0 2 4.5
1 2 4.8
2 2 2.5
# icmod fcfact rcfact
3 5.0 1.4
# epsh1 epsh2 depsh
-12.0 12.0 0.02
# rlmax drl
6.0 0.01
 0
]]>
</input-file>
</provenance>
<pseudo-atom-spec atomic-label="As" atomic-number="33" z-pseudo="15"
 flavor="Hamann&apos;s oncvpsp" relativity="scalar" spin-dft="no"
 core-corrections="yes">
<annotation pseudo-energy="-95.7851227312" />
<exchange-correlation>
<annotation oncvpsp-xc-code="-116133" oncvpsp-xc-type="libxc-interface" />
<libxc-info number-of-functionals="2">
<functional name="Perdew, Burke &amp; Ernzerhof SOL (GGA)" type="exchange"
 id="116" />
<functional name="Perdew, Burke &amp; Ernzerhof SOL (GGA)" type="correlation"
 id="133" />
</libxc-info>
</exchange-correlation>
<valence-configuration total-valence-charge="15">
<shell n="3" l="d" occupation="10" />
<shell n="4" l="s" occupation="2" />
<shell n="4" l="p" occupation="3" />
</valence-configuration>
</pseudo-atom-spec>
<grid npts="457">
<annotation type="sampled from oncvpsp log grid"
 recipe="r(i:1..N) = r1*exp(a*(i-1)) + r=0; resampled"
 recipe-cont="r1: scale; a: step" scale="0.151515151515E-04"
 step="0.119285708653E-01" delta="0.500000000000E-02" rmax="44.2319075471" />
<grid-data>
  0.000000000000E+00  5.050863755537E-03  1.008870397413E-02  1.513466471039E-02
  2.015139445527E-02  2.527754206661E-02  3.059306869357E-02  3.572479163279E-02
  4.073383894775E-02  4.589448142461E-02  5.109578544660E-02  5.621201837620E-02
  6.184054090387E-02  6.722593745724E-02  7.308032240581E-02  7.850250761159E-02
  8.432699115759E-02  8.950950742873E-02  9.501052759205E-02  1.008496260636E-01
  1.070475802516E-01  1.122790953457E-01  1.177662794620E-01  1.235216273841E-01
  1.295582445274E-01  1.358898767811E-01  1.425309418088E-01  1.477238753743E-01
  1.531060068687E-01  1.586842294782E-01  1.644656875329E-01  1.704577856578E-01
  1.766681982559E-01  1.831048793374E-01  1.897760727067E-01  1.966903225206E-01
  2.038564842315E-01  2.112837359290E-01  2.163849704493E-01  2.216093691758E-01
  2.269599057852E-01  2.324396257505E-01  2.380516480746E-01  2.437991670657E-01
  2.496854541554E-01  2.557138597605E-01  2.618878151905E-01  2.682108346005E-01
  2.746865169911E-01  2.813185482573E-01  2.881107032865E-01  2.950668481066E-01
  3.021909420873E-01  3.094870401931E-01  3.169592952915E-01  3.246119605170E-01
  3.324493916917E-01  3.404760498047E-01  3.486965035512E-01  3.571154319329E-01
  3.657376269215E-01  3.745679961859E-01  3.836115658858E-01  3.928734835326E-01
  4.023590209190E-01  4.120735771201E-01  4.220226815661E-01  4.270869537448E-01
  4.322119971898E-01  4.373985411561E-01  4.426473236499E-01  4.479590915337E-01
  4.533346006321E-01  4.587746158397E-01  4.642799112298E-01  4.698512701646E-01
  4.754894854065E-01  4.811953592314E-01  4.869697035422E-01  4.928133399847E-01
  4.987271000645E-01  5.047118252653E-01  5.107683671685E-01  5.168975875745E-01
  5.231003586254E-01  5.293775629289E-01  5.357300936840E-01  5.421588548082E-01
  5.486647610659E-01  5.552487381987E-01  5.619117230571E-01  5.686546637338E-01
  5.754785196986E-01  5.823842619350E-01  5.893728730782E-01  5.964453475551E-01
  6.036026917258E-01  6.108459240265E-01  6.181760751148E-01  6.255941880162E-01
  6.331013182724E-01  6.406985340917E-01  6.483869165008E-01  6.561675594988E-01
  6.640415702128E-01  6.720100690553E-01  6.800741898840E-01  6.882350801626E-01
  6.964939011246E-01  7.048518279380E-01  7.133100498733E-01  7.218697704718E-01
  7.305322077174E-01  7.392985942101E-01  7.481701773406E-01  7.571482194687E-01
  7.662339981023E-01  7.754288060795E-01  7.847339517525E-01  7.941507591735E-01
  8.036805682836E-01  8.133247351030E-01  8.230846319242E-01  8.329616475073E-01
  8.429571872774E-01  8.530726735247E-01  8.633095456070E-01  8.736692601543E-01
  8.841532912762E-01  8.947631307715E-01  9.055002883407E-01  9.163662918008E-01
  9.273626873024E-01  9.384910395501E-01  9.497529320247E-01  9.611499672090E-01
  9.726837668155E-01  9.843559720172E-01  9.961682436815E-01  1.008122262606E+00
  1.020219729757E+00  1.032462366514E+00  1.044851914912E+00  1.057390137891E+00
  1.070078819546E+00  1.082919765380E+00  1.095914802565E+00  1.109065780196E+00
  1.122374569558E+00  1.135843064393E+00  1.149473181165E+00  1.163266859339E+00
  1.177226061651E+00  1.191352774391E+00  1.205649007684E+00  1.220116795776E+00
  1.234758197326E+00  1.249575295693E+00  1.264570199242E+00  1.279745041633E+00
  1.295101982132E+00  1.310643205918E+00  1.326370924389E+00  1.342287375482E+00
  1.358394823987E+00  1.374695561875E+00  1.391191908618E+00  1.407886211521E+00
  1.424780846059E+00  1.441878216212E+00  1.459180754807E+00  1.476690923864E+00
  1.494411214951E+00  1.512344149530E+00  1.530492279324E+00  1.548858186676E+00
  1.567444484916E+00  1.586253818735E+00  1.605288864560E+00  1.624552330935E+00
  1.644046958906E+00  1.663775522413E+00  1.683740828682E+00  1.703945718626E+00
  1.724393067250E+00  1.745085784057E+00  1.766026813465E+00  1.787219135227E+00
  1.808665764850E+00  1.830369754028E+00  1.852334191076E+00  1.874562201369E+00
  1.897056947786E+00  1.919821631159E+00  1.942859490733E+00  1.966173804622E+00
  1.989767890277E+00  2.013645104960E+00  2.037808846220E+00  2.062262552375E+00
  2.087009703003E+00  2.112053819439E+00  2.137398465272E+00  2.163047246856E+00
  2.189003813818E+00  2.215271859584E+00  2.241855121899E+00  2.268757383362E+00
  2.295982471962E+00  2.323534261625E+00  2.351416672765E+00  2.379633672838E+00
  2.408189276912E+00  2.437087548235E+00  2.466332598814E+00  2.495928590000E+00
  2.525879733080E+00  2.556190289877E+00  2.586864573355E+00  2.617906948235E+00
  2.649321831614E+00  2.681113693594E+00  2.713287057917E+00  2.745846502612E+00
  2.778796660643E+00  2.812142220571E+00  2.845887927218E+00  2.880038582344E+00
  2.914599045332E+00  2.949574233876E+00  2.984969124683E+00  3.020788754179E+00
  3.057038219229E+00  3.093722677860E+00  3.130847349994E+00  3.168417518194E+00
  3.206438528413E+00  3.244915790754E+00  3.283854780243E+00  3.323261037606E+00
  3.363140170057E+00  3.403497852097E+00  3.444339826323E+00  3.485671904239E+00
  3.527499967089E+00  3.569829966694E+00  3.612667926295E+00  3.656019941410E+00
  3.699892180707E+00  3.744290886876E+00  3.789222377518E+00  3.834693046048E+00
  3.880709362601E+00  3.927277874952E+00  3.974405209452E+00  4.022098071965E+00
  4.070363248829E+00  4.119207607815E+00  4.168638099108E+00  4.218661756298E+00
  4.269285697373E+00  4.320517125742E+00  4.372363331251E+00  4.424831691226E+00
  4.477929671520E+00  4.531664827579E+00  4.586044805510E+00  4.641077343176E+00
  4.696770271294E+00  4.753131514549E+00  4.810169092724E+00  4.867891121837E+00
  4.926305815299E+00  4.985421485082E+00  5.045246542903E+00  5.105789501418E+00
  5.167058975435E+00  5.229063683140E+00  5.291812447338E+00  5.355314196706E+00
  5.419577967067E+00  5.484612902671E+00  5.550428257503E+00  5.617033396593E+00
  5.684437797353E+00  5.752651050921E+00  5.821682863532E+00  5.891543057894E+00
  5.962241574589E+00  6.033788473484E+00  6.106193935166E+00  6.179468262388E+00
  6.253621881536E+00  6.328665344115E+00  6.404609328244E+00  6.481464640183E+00
  6.559242215865E+00  6.637953122456E+00  6.717608559925E+00  6.798219862644E+00
  6.879798500996E+00  6.962356083008E+00  7.045904356004E+00  7.130455208276E+00
  7.216020670775E+00  7.302612918825E+00  7.390244273851E+00  7.478927205137E+00
  7.568674331599E+00  7.659498423578E+00  7.751412404661E+00  7.844429353517E+00
  7.938562505759E+00  8.033825255828E+00  8.130231158898E+00  8.227793932805E+00
  8.326527459998E+00  8.426445789518E+00  8.527563138992E+00  8.629893896660E+00
  8.733452623420E+00  8.838254054901E+00  8.944313103560E+00  9.051644860803E+00
  9.160264599132E+00  9.270187774322E+00  9.381430027614E+00  9.494007187945E+00
  9.607935274201E+00  9.723230497491E+00  9.839909263461E+00  9.957988174622E+00
  1.007748403272E+01  1.019841384111E+01  1.032079480720E+01  1.044464434489E+01
  1.056998007703E+01  1.069681983795E+01  1.082518167601E+01  1.095508385612E+01
  1.108654486239E+01  1.121958340074E+01  1.135421840155E+01  1.149046902237E+01
  1.162835465064E+01  1.176789490645E+01  1.190910964532E+01  1.205201896107E+01
  1.219664318860E+01  1.234300290686E+01  1.249111894175E+01  1.264101236905E+01
  1.279270451748E+01  1.294621697169E+01  1.310157157535E+01  1.325879043425E+01
  1.341789591946E+01  1.357891067049E+01  1.374185759854E+01  1.390675988972E+01
  1.407364100840E+01  1.424252470050E+01  1.441343499691E+01  1.458639621687E+01
  1.476143297147E+01  1.493857016713E+01  1.511783300913E+01  1.529924700524E+01
  1.548283796931E+01  1.566863202494E+01  1.585665560924E+01  1.604693547655E+01
  1.623949870227E+01  1.643437268670E+01  1.663158515894E+01  1.683116418084E+01
  1.703313815101E+01  1.723753580883E+01  1.744438623853E+01  1.765371887339E+01
  1.786556349987E+01  1.807995026187E+01  1.829690966501E+01  1.851647258100E+01
  1.873867025197E+01  1.896353429499E+01  1.919109670653E+01  1.942138986701E+01
  1.965444654541E+01  1.989029990396E+01  2.012898350281E+01  2.037053130484E+01
  2.061497768050E+01  2.086235741266E+01  2.111270570162E+01  2.136605817003E+01
  2.162245086807E+01  2.188192027849E+01  2.214450332183E+01  2.241023736170E+01
  2.267916021004E+01  2.295131013256E+01  2.322672585415E+01  2.350544656440E+01
  2.378751192317E+01  2.407296206625E+01  2.436183761104E+01  2.465417966238E+01
  2.495002981832E+01  2.524943017614E+01  2.555242333826E+01  2.585905241832E+01
  2.616936104734E+01  2.648339337990E+01  2.680119410046E+01  2.712280842967E+01
  2.744828213082E+01  2.777766151639E+01  2.811099345459E+01  2.844832537605E+01
  2.878970528056E+01  2.913518174393E+01  2.948480392485E+01  2.983862157195E+01
  3.019668503081E+01  3.055904525118E+01  3.092575379420E+01  3.129686283973E+01
  3.167242519381E+01  3.205249429613E+01  3.243712422768E+01  3.282636971842E+01
  3.322028615504E+01  3.361892958890E+01  3.402235674397E+01  3.443062502489E+01
  3.484379252519E+01  3.526191803549E+01  3.568506105192E+01  3.611328178454E+01
  3.654664116596E+01  3.698520085995E+01  3.742902327027E+01  3.787817154951E+01
  3.833270960811E+01  3.879270212340E+01  3.925821454888E+01  3.972931312347E+01
  4.020606488095E+01  4.068853765952E+01  4.117680011144E+01  4.167092171277E+01
  4.217097277333E+01  4.267702444661E+01  4.318914873997E+01  4.370741852485E+01
  4.423190754715E+01
</grid-data>
</grid>
<valence-charge total-charge="15" is-unscreening-charge="yes"
 rescaled-to-z-pseudo="no">
<radfunc>
<data npts="457">
  1.517851884326E-03  1.526440654666E-03  1.560434227700E-03  1.644886424000E-03
  1.819900172164E-03  2.151887982615E-03  2.742493008174E-03  3.648920684092E-03
  4.960955798251E-03  6.881636088515E-03  9.549477603527E-03  1.305192107145E-02
  1.811979365030E-02  2.438451755090E-02  3.304563188350E-02  4.306181362710E-02
  5.627808816234E-02  7.045905417333E-02  8.831099473328E-02  1.107714985921E-01
  1.390106923231E-01  1.667306768671E-01  1.999801512476E-01  2.398340979873E-01
  2.875664886526E-01  3.446837583069E-01  4.129627820311E-01  4.727411340744E-01
  5.409786847158E-01  6.188141073521E-01  7.075252591522E-01  8.085428121970E-01
  9.234643726028E-01  1.054068854610E+00  1.202330789877E+00  1.370434146459E+00
  1.560785104604E+00  1.776023085140E+00  1.934753825865E+00  2.106735269779E+00
  2.292930679121E+00  2.494351737205E+00  2.712057491746E+00  2.947152557364E+00
  3.200784453611E+00  3.474139942807E+00  3.768440219887E+00  4.084934794666E+00
  4.424893895860E+00  4.789599216237E+00  5.180332810145E+00  5.598363948966E+00
  6.044933737652E+00  6.521237297439E+00  7.028403327139E+00  7.567470869459E+00
  8.139363130926E+00  8.744858235848E+00  9.384556837966E+00  1.005884656983E+01
  1.076786338129E+01  1.151144990665E+01  1.228911110666E+01  1.309996755786E+01
  1.394270690966E+01  1.481553419806E+01  1.571612189571E+01  1.617594079638E+01
  1.664156078798E+01  1.711251961750E+01  1.758831299262E+01  1.806839334291E+01
  1.855216868210E+01  1.903900158770E+01  1.952820831576E+01  2.001905806893E+01
  2.051077243707E+01  2.100252503058E+01  2.149344132681E+01  2.198259875108E+01
  2.246902701381E+01  2.295170872581E+01  2.342958031369E+01  2.390153325763E+01
  2.436641567296E+01  2.482303425680E+01  2.527015662012E+01  2.570651402432E+01
  2.613080454003E+01  2.654169664411E+01  2.693783326846E+01  2.731783631180E+01
  2.768031162241E+01  2.802385445654E+01  2.834705541304E+01  2.864850684071E+01
  2.892680970954E+01  2.918058093239E+01  2.940846111710E+01  2.960912272359E+01
  2.978127859337E+01  2.992369081231E+01  3.003517986002E+01  3.011463399182E+01
  3.016101879171E+01  3.017338682671E+01  3.015088732572E+01  3.009277579791E+01
  2.999842349894E+01  2.986732664602E+01  2.969911527687E+01  2.949356164188E+01
  2.925058801432E+01  2.897027380010E+01  2.865286182600E+01  2.829876368526E+01
  2.790856401977E+01  2.748302362151E+01  2.702308124058E+01  2.652985399414E+01
  2.600463628018E+01  2.544889711163E+01  2.486427580069E+01  2.425257593957E+01
  2.361575764330E+01  2.295592804119E+01  2.227533002725E+01  2.157632930503E+01
  2.086139978937E+01  2.013310745565E+01  1.939409275602E+01  1.864705175128E+01
  1.789471613565E+01  1.713983235974E+01  1.638514008304E+01  1.563335021065E+01
  1.488712279002E+01  1.414904505970E+01  1.342160995424E+01  1.270719537625E+01
  1.200804454746E+01  1.132624774496E+01  1.066372571707E+01  1.002221505381E+01
  9.403255761063E+00  8.808181254959E+00  8.238110953650E+00  7.693945598998E+00
  7.176365390970E+00  6.685830964045E+00  6.222587178922E+00  5.786669645711E+00
  5.377913838189E+00  4.995966604246E+00  4.640299827090E+00  4.310225946717E+00
  4.004915013267E+00  3.723412914396E+00  3.464660399089E+00  3.227512510998E+00
  3.010758046143E+00  2.813138662528E+00  2.633367292703E+00  2.470145543605E+00
  2.322179810047E+00  2.188195877258E+00  2.066951842076E+00  1.957249239539E+00
  1.857942319362E+00  1.767945472902E+00  1.686238863308E+00  1.611872357747E+00
  1.543967899047E+00  1.481720483659E+00  1.424397932619E+00  1.371339651981E+00
  1.321954579283E+00  1.275718503797E+00  1.232170931904E+00  1.190911646481E+00
  1.151597082768E+00  1.113936614657E+00  1.077688816937E+00  1.042657742594E+00
  1.008689080529E+00  9.756657088079E-01  9.435029075606E-01  9.121416297473E-01
  8.815357710103E-01  8.516490244424E-01  8.224612511597E-01  7.939536990809E-01
  7.661097158909E-01  7.389152631993E-01  7.123581526737E-01  6.864278790500E-01
  6.611153785530E-01  6.364128123091E-01  6.123133660588E-01  5.888110656590E-01
  5.659006079538E-01  5.435772065350E-01  5.218364518836E-01  5.006741853512E-01
  4.800863864154E-01  4.600690726195E-01  4.406182115901E-01  4.217296445103E-01
  4.033990204215E-01  3.856217406841E-01  3.683929130173E-01  3.517073144077E-01
  3.355593622828E-01  3.199430933153E-01  3.048521491974E-01  2.902797688462E-01
  2.762187863734E-01  2.626616342721E-01  2.496003512569E-01  2.370265942153E-01
  2.249316537560E-01  2.133064728607E-01  2.021416681735E-01  1.914275534855E-01
  1.811541650012E-01  1.713112880000E-01  1.618884845315E-01  1.528751218138E-01
  1.442604010284E-01  1.360333862338E-01  1.281830331471E-01  1.206982175652E-01
  1.135677632278E-01  1.067804689437E-01  1.003251348281E-01  9.419058751947E-02
  8.836570427546E-02  8.283943584211E-02  7.760082804316E-02  7.263904203075E-02
  6.794337316410E-02  6.350326849674E-02  5.930834286687E-02  5.534839359794E-02
  5.161341382761E-02  4.809360449283E-02  4.477938500696E-02  4.166140267121E-02
  3.873054086813E-02  3.597792608825E-02  3.339493384365E-02  3.097319352327E-02
  2.870459224490E-02  2.658127775803E-02  2.459566045039E-02  2.274041450874E-02
  2.100847828250E-02  1.939305389623E-02  1.788760615468E-02  1.648586078194E-02
  1.518180203462E-02  1.396966972730E-02  1.284395570765E-02  1.179939981806E-02
  1.083098538033E-02  9.933934240241E-03  9.103701409093E-03  8.335969339854E-03
  7.626641876140E-03  6.971837912745E-03  6.367884806825E-03  5.811311578984E-03
  5.298841943451E-03  4.827387206088E-03  4.394039068265E-03  3.996062373565E-03
  3.630887832884E-03  3.296104761829E-03  2.989453862331E-03  2.708820078235E-03
  2.452225552253E-03  2.217822709141E-03  2.003887487390E-03  1.808812739048E-03
  1.631101814631E-03  1.469362347467E-03  1.322300249220E-03  1.188713925890E-03
  1.067488721220E-03  9.575915921975E-04  8.580660193050E-04  7.680271522458E-04
  6.866571901702E-04  6.132009938757E-04  5.469619261112E-04  4.872979149518E-04
  4.336177342290E-04  3.853774942028E-04  3.420773350355E-04  3.032583151559E-04
  2.684994862858E-04  2.374151467160E-04  2.096522643532E-04  1.848880611000E-04
  1.628277502521E-04  1.432024187991E-04  1.257670467637E-04  1.102986560115E-04
  9.659458128165E-05  8.447085653170E-05  7.376071003147E-05  6.431316198115E-05
  5.599171877416E-05  4.867315833167E-05  4.224640124305E-05  3.661146275376E-05
  3.167848088170E-05  2.736681619357E-05  2.360421901912E-05  2.032606007908E-05
  1.747462069748E-05  1.499843895301E-05  1.285170829229E-05  1.099372528597E-05
  9.388383358350E-06  8.003709463668E-06  6.811440818969E-06  5.786638935681E-06
  4.907338320280E-06  4.154227339883E-06  3.510358871425E-06  2.960888473746E-06
  2.492837940530E-06  2.094882208673E-06  1.757157711267E-06  1.471090376711E-06
  1.229241585502E-06  1.025170503510E-06  8.533113150266E-07  7.088639800469E-07
  5.876972381346E-07  4.862626753224E-07  4.015187608251E-07  3.308638465828E-07
  2.720772047304E-07  2.232672558875E-07  1.828262146231E-07  1.493904475516E-07
  1.218059042688E-07  9.909804178962E-08  8.044571937953E-08  6.515859278195E-08
  5.265758496389E-08  4.245805477900E-08  3.415532554474E-08  2.741227262581E-08
  2.194870289487E-08  1.753228959670E-08  1.397085386855E-08  1.110580916418E-08
  8.806607286980E-09  6.966044850147E-09  5.496306935903E-09  4.325640700682E-09
  3.395565842502E-09  2.658541373671E-09  2.076019182194E-09  1.616824564159E-09
  1.255812403196E-09  9.727550879433E-10  7.514247111432E-10  5.788376915445E-10
  4.446348003691E-10  3.405737467534E-10  2.601150621752E-10  1.980850952232E-10
  1.504025505635E-10  1.138572380637E-10  8.593159178710E-11  6.465712008696E-11
  4.849929803919E-11  3.626554775053E-11  2.703190202345E-11  2.008473979546E-11
  1.487464145962E-11  1.097995917811E-11  8.078149346957E-12  5.923286678730E-12
  4.328484961394E-12  3.152199519091E-12  2.287590160134E-12  1.654288910538E-12
  1.192050802417E-12  8.558740405959E-13  6.122627083903E-13  4.363747072437E-13
  3.098530989977E-13  2.191831130241E-13  1.544519970898E-13  1.084164361347E-13
  7.580391041188E-14  5.279131097291E-14  3.661734537943E-14  2.529553090451E-14
  1.740251339477E-14  1.192256846582E-14  8.133838279159E-15  5.525441737082E-15
  3.737333696064E-15  2.516851072092E-15  1.687450411579E-15  1.126313244513E-15
  7.483737770364E-16  4.949774008431E-16  3.258633873060E-16  2.135230687584E-16
  1.392478252743E-16  9.037357350313E-17  5.836851023529E-17  3.751234724339E-17
  2.398845805107E-17  1.526287879514E-17  9.661614196697E-18  6.084354867336E-18
  3.811559632331E-18  2.375117049935E-18  1.472076781859E-18  0.000000000000E+00
  0.000000000000E+00  0.000000000000E+00  0.000000000000E+00  0.000000000000E+00
  0.000000000000E+00  0.000000000000E+00  0.000000000000E+00  0.000000000000E+00
  0.000000000000E+00  0.000000000000E+00  0.000000000000E+00  0.000000000000E+00
  0.000000000000E+00  0.000000000000E+00  0.000000000000E+00  0.000000000000E+00
  0.000000000000E+00  0.000000000000E+00  0.000000000000E+00  0.000000000000E+00
  0.000000000000E+00  0.000000000000E+00  0.000000000000E+00  0.000000000000E+00
  0.000000000000E+00  0.000000000000E+00  0.000000000000E+00  0.000000000000E+00
  0.000000000000E+00
</data>
</radfunc>
</valence-charge>
<pseudocore-charge matching-radius="0.648386916501"
 number-of-continuous-derivatives="4">
<annotation model-charge-form="Teter function with specified parameters" />
<radfunc>
<data npts="290">
  1.540579426292E+02  1.540428735909E+02  1.539978300280E+02  1.539226914249E+02
  1.538182427931E+02  1.536809388698E+02  1.535060042354E+02  1.533057679487E+02
  1.530807243808E+02  1.528184226195E+02  1.525229374525E+02  1.522019744061E+02
  1.518143630881E+02  1.514098832656E+02  1.509331883859E+02  1.504576082419E+02
  1.499105825640E+02  1.493926721355E+02  1.488111539508E+02  1.481585014894E+02
  1.474263743117E+02  1.467772852819E+02  1.460662939171E+02  1.452878359642E+02
  1.444359181452E+02  1.435041004582E+02  1.424854814770E+02  1.416601362484E+02
  1.407785407874E+02  1.398372574467E+02  1.388326994258E+02  1.377611343127E+02
  1.366186897531E+02  1.354013616094E+02  1.341050250063E+02  1.327254487065E+02
  1.312583132993E+02  1.296992337238E+02  1.286065835259E+02  1.274697900248E+02
  1.262875436040E+02  1.250585440437E+02  1.237815066993E+02  1.224551693321E+02
  1.210782996284E+02  1.196497034455E+02  1.181682338172E+02  1.166328007544E+02
  1.150423818673E+02  1.133960338365E+02  1.116929047496E+02  1.099322473181E+02
  1.081134329762E+02  1.062359668562E+02  1.042995036207E+02  1.023038641204E+02
  1.002490528261E+02  9.813527596913E+01  9.596296029855E+01  9.373277234367E+01
  9.144563804023E+01  8.910276255106E+01  8.670565007883E+01  8.425612343359E+01
  8.175634308041E+01  7.920882535246E+01  7.661645947392E+01  7.530446716098E+01
  7.398252299436E+01  7.265109954430E+01  7.131069519368E+01  6.996183441155E+01
  6.860506797510E+01  6.724097313554E+01  6.587015372347E+01  6.449324018880E+01
  6.311088957079E+01  6.172378539314E+01  6.033263747935E+01  5.893818168338E+01
  5.754117953074E+01  5.614241776504E+01  5.474270779530E+01  5.334288503902E+01
  5.194380815672E+01  5.054635817319E+01  4.915143748149E+01  4.775996872549E+01
  4.637289355747E+01  4.499117126748E+01  4.361577728155E+01  4.224770152634E+01
  4.088794665866E+01  3.953752615828E+01  3.819746228395E+01  3.686878389245E+01
  3.555252412207E+01  3.424971794228E+01  3.296139957257E+01  3.168859977443E+01
  3.043234302147E+01  2.919364455401E+01  2.797350732541E+01  2.677291884909E+01
  2.559284795616E+01  2.443424147514E+01  2.329802084670E+01  2.218507868766E+01
  2.109627532004E+01  2.003243528233E+01  1.899434384172E+01  1.798274352721E+01
  1.699833070509E+01  1.604175221945E+01  1.511360212163E+01  1.421441851344E+01
  1.334468053024E+01  1.250480549033E+01  1.169514623809E+01  1.091598870833E+01
  1.016754973969E+01  9.449975164650E+00  8.763338203316E+00  8.107638187329E+00
  7.482799639252E+00  6.888671731197E+00  6.325028144667E+00  5.791567351319E+00
  5.287913331701E+00  4.813616745940E+00  4.368156566887E+00  3.950942182352E+00
  3.561315968778E+00  3.198556334100E+00  2.861881222575E+00  2.550452069128E+00
  2.263378185290E+00  1.999721553165E+00  1.758501998117E+00  1.538702705102E+00
  1.339276037898E+00  1.159149614961E+00  9.972325903918E-01  8.524220836795E-01
  7.236096975341E-01  6.096880594198E-01  5.095573194520E-01  4.221315352189E-01
  3.463448729683E-01  2.811575545505E-01  2.255614806097E-01  1.785854628474E-01
  1.393000017806E-01  1.068215513099E-01  8.031621759348E-02  5.900284715216E-02
  4.215546773490E-02  2.910505515197E-02  1.924060988195E-02  1.200953860319E-02
  6.917347672261E-03  3.526667720647E-03  1.455640691663E-03  3.757124891821E-04
  8.885644522276E-06  1.244967038437E-04  5.355920767721E-04  1.094983562380E-03
  1.691070402474E-03  2.243518264212E-03  2.698886835438E-03  3.026296600329E-03
  3.213221796914E-03  3.261490570246E-03  3.183565041809E-03  2.999163624084E-03
  2.732275715653E-03  2.408605298018E-03  2.053465376490E-03  1.690130181000E-03
  1.338637127228E-03  1.015016312447E-03  7.309123555767E-04  4.935522243975E-04
  3.060037984227E-04  1.676636755338E-04  7.490940919048E-05  2.185108728487E-05
  1.119906958156E-06  4.636975257926E-06  2.431362910382E-05  5.264463037771E-05
  8.316704185147E-05  1.107697269231E-04  1.318504931140E-04  1.443291687960E-04
  1.475346691856E-04  1.419917784584E-04  1.291385063314E-04  1.110072132129E-04
  8.990219400566E-05  6.810324447925E-05  4.761929598348E-05  3.000906877657E-05
  1.627757412236E-05  6.848979902109E-06  1.608637660212E-06  6.730967677400E-10
  1.163045248309E-06  4.079755022231E-06  7.730057363448E-06  1.121696546956E-05
  1.386164135701E-05  1.525584717139E-05  1.527074874435E-05  1.402622933343E-05
  1.182974807008E-05  9.097070213054E-06  6.268536264902E-06  3.733833658584E-06
  1.775689909434E-06  5.389866041045E-07  2.716253483853E-08  0.000000000000E+00
  0.000000000000E+00  0.000000000000E+00  0.000000000000E+00  0.000000000000E+00
  0.000000000000E+00  0.000000000000E+00  0.000000000000E+00  0.000000000000E+00
  0.000000000000E+00  0.000000000000E+00  0.000000000000E+00  0.000000000000E+00
  0.000000000000E+00  0.000000000000E+00  0.000000000000E+00  0.000000000000E+00
  0.000000000000E+00  0.000000000000E+00  0.000000000000E+00  0.000000000000E+00
  0.000000000000E+00  0.000000000000E+00  0.000000000000E+00  0.000000000000E+00
  0.000000000000E+00  0.000000000000E+00  0.000000000000E+00  0.000000000000E+00
  0.000000000000E+00  0.000000000000E+00  0.000000000000E+00  0.000000000000E+00
  0.000000000000E+00  0.000000000000E+00  0.000000000000E+00  0.000000000000E+00
  0.000000000000E+00  0.000000000000E+00  0.000000000000E+00  0.000000000000E+00
  0.000000000000E+00  0.000000000000E+00  0.000000000000E+00  0.000000000000E+00
  0.000000000000E+00  0.000000000000E+00  0.000000000000E+00  0.000000000000E+00
  0.000000000000E+00  0.000000000000E+00  0.000000000000E+00  0.000000000000E+00
  0.000000000000E+00  0.000000000000E+00  0.000000000000E+00  0.000000000000E+00
  0.000000000000E+00  0.000000000000E+00  0.000000000000E+00  0.000000000000E+00
  0.000000000000E+00  0.000000000000E+00  0.000000000000E+00  0.000000000000E+00
  0.000000000000E+00  0.000000000000E+00
</data>
</radfunc>
</pseudocore-charge>
<semilocal-potentials set="scalar_relativistic">
<slps n="4" l="s" rc="1.76602681347" eref="-0.532985079638">
<radfunc>
<data npts="290">
  9.475740771966E+01  9.465128025249E+01  9.433517030092E+01  9.381157961958E+01
  9.309137762352E+01  9.215788469371E+01  9.098984135653E+01  8.968128925297E+01
  8.824562437758E+01  8.661725017369E+01  8.483840092815E+01  8.296970545818E+01
  8.079653568165E+01  7.862071213507E+01  7.616929364045E+01  7.383724081245E+01
  7.128519768562E+01  6.898831747582E+01  6.653737746377E+01  6.393552592084E+01
  6.118858341089E+01  5.889228602335E+01  5.651439429717E+01  5.406187271575E+01
  5.154283141808E+01  4.896645031115E+01  4.634286892570E+01  4.435077272633E+01
  4.234314553854E+01  4.032501580195E+01  3.830152189963E+01  3.627786075460E+01
  3.425923521915E+01  3.225080140099E+01  3.025761707445E+01  2.828459228757E+01
  2.633644319779E+01  2.441765005620E+01  2.315685337099E+01  2.191215246574E+01
  2.068465608608E+01  1.947540623952E+01  1.828537578417E+01  1.711546657230E+01
  1.596650814447E+01  1.483925696382E+01  1.373439617432E+01  1.265253586172E+01
  1.159421379132E+01  1.055989659300E+01  9.549981360630E+00  8.564797630754E+00
  7.604609703307E+00  6.669619266260E+00  5.759968285345E+00  4.875742120084E+00
  4.016972827819E+00  3.183642618423E+00  2.375687423715E+00  1.593000547352E+00
  8.354363629313E-01  1.028140303080E-01 -6.050787974839E-01 -1.288482301842E+00
 -1.947660883378E+00 -2.582899624136E+00 -3.194500845384E+00 -3.491535753325E+00
 -3.782780777285E+00 -4.068277093705E+00 -4.348066355533E+00 -4.622190600072E+00
 -4.890692159394E+00 -5.153613573429E+00 -5.410997505852E+00 -5.662886662956E+00
 -5.909323715626E+00 -6.150351224598E+00 -6.386011569207E+00 -6.616346879814E+00
 -6.841398974158E+00 -7.061209297871E+00 -7.275818869451E+00 -7.485268229971E+00
 -7.689597397874E+00 -7.888845829188E+00 -8.083052383546E+00 -8.272255296404E+00
 -8.456492157870E+00 -8.635799898567E+00 -8.810214782974E+00 -8.979772410658E+00
 -9.144507725819E+00 -9.304455035539E+00 -9.459648037065E+00 -9.610119854411E+00
 -9.755903084479E+00 -9.897029852776E+00 -1.003353187871E+01 -1.016544055024E+01
 -1.029278700756E+01 -1.041560223521E+01 -1.053391716186E+01 -1.064776276680E+01
 -1.075717019187E+01 -1.086217085744E+01 -1.096279658084E+01 -1.105907969535E+01
 -1.115105316791E+01 -1.123875071362E+01 -1.132220690476E+01 -1.140145727273E+01
 -1.147653840075E+01 -1.154748800585E+01 -1.161434500867E+01 -1.167714958996E+01
 -1.173594323290E+01 -1.179076875092E+01 -1.184167030063E+01 -1.188869338002E+01
 -1.193188481218E+01 -1.197129271472E+01 -1.200696645521E+01 -1.203895659257E+01
 -1.206731480393E+01 -1.209209379612E+01 -1.211334719984E+01 -1.213112944406E+01
 -1.214549560667E+01 -1.215650123682E+01 -1.216420214278E+01 -1.216865413851E+01
 -1.216991274129E+01 -1.216803281293E+01 -1.216306813771E+01 -1.215507093289E+01
 -1.214409129159E+01 -1.213017656497E+01 -1.211337070051E+01 -1.209371356662E+01
 -1.207124031048E+01 -1.204598081570E+01 -1.201795934584E+01 -1.198719447798E+01
 -1.195369944111E+01 -1.191748297276E+01 -1.187855078813E+01 -1.183690771405E+01
 -1.179256047324E+01 -1.174552101312E+01 -1.169581016381E+01 -1.164346129103E+01
 -1.158852349423E+01 -1.153106380223E+01 -1.147116775494E+01 -1.140893774874E+01