<?xml version="1.0" encoding="UTF-8" ?>
<psml version="1.1" energy_unit="hartree" length_unit="bohr"
 uuid="2ec740c0-1d66-11e8-4b8a-ef7ffdbf8aab"
 xmlns="http://esl.cecam.org/PSML/ns/1.1">
<provenance creator="ONCVPSP-3.3.0+psml-3.3.0-73 (scalar-relativistic)"
 date="2018-03-01">
<annotation action="semilocal-pseudopotential-generation"
 action-cont="projectors-generation" />
<input-file name="oncvpsp-input">
<![CDATA[# atsym z nc nv iexc psfile
Ta 73 9 5 -116133 upf
# n l f
1 0 2.0
2 0 2.0
2 1 6.0
3 0 2.0
3 1 6.0
3 2 10.0
4 0 2.0
4 1 6.0
4 2 10.0
4 3 14.0
5 0 2.0
5 1 6.0
5 2 3.0
6 0 2.0
# lmax
3
# l rc ep ncon nbas qcut
0 2.30 0.0 4 7 5.2
1 1.85 0.0 4 7 6.6
2 2.05 0.0 4 9 6.6
3 1.6 0.0 4 8 11.4
# lloc lpopt rc5 dvloc0
4 5 1.6 0.0
# l nproj debl
0 2 2.0
1 2 1.5
2 2 1.8
3 2 1.0
# icmod fcfact
3 5 1.36
# epsh1 epsh2 depsh
-12.0 12.0 0.02
# rlmax drl
6.0 0.01
 0
]]>
</input-file>
</provenance>
<pseudo-atom-spec atomic-label="Ta" atomic-number="73" z-pseudo="27"
 flavor="Hamann&apos;s oncvpsp" relativity="scalar" spin-dft="no"
 core-corrections="yes">
<annotation pseudo-energy="-301.975371467" />
<exchange-correlation>
<annotation oncvpsp-xc-code="-116133" oncvpsp-xc-type="libxc-interface" />
<libxc-info number-of-functionals="2">
<functional name="Perdew, Burke &amp; Ernzerhof SOL (GGA)" type="exchange"
 id="116" />
<functional name="Perdew, Burke &amp; Ernzerhof SOL (GGA)" type="correlation"
 id="133" />
</libxc-info>
</exchange-correlation>
<valence-configuration total-valence-charge="27">
<shell n="4" l="f" occupation="14" />
<shell n="5" l="s" occupation="2" />
<shell n="5" l="p" occupation="6" />
<shell n="5" l="d" occupation="3" />
<shell n="6" l="s" occupation="2" />
</valence-configuration>
</pseudo-atom-spec>
<grid npts="458">
<annotation type="sampled from oncvpsp log grid"
 recipe="r(i:1..N) = r1*exp(a*(i-1)) + r=0; resampled"
 recipe-cont="r1: scale; a: step" scale="0.684931506849E-05"
 step="0.119285708653E-01" delta="0.500000000000E-02" rmax="44.4652856571" />
<grid-data>
  0.000000000000E+00  5.017305651402E-03  1.002167429467E-02  1.503410950261E-02
  2.025771802601E-02  2.541091241664E-02  3.075448503181E-02  3.591328416708E-02
  4.094876041219E-02  4.613663167149E-02  5.136537901594E-02  5.650860641260E-02
  6.216682636963E-02  6.758063756162E-02  7.259477435141E-02  7.798093438119E-02
  8.376671986784E-02  8.891480333121E-02  9.437927453650E-02  1.001795778466E-01
  1.063363526242E-01  1.115331093606E-01  1.169838364460E-01  1.227009456482E-01
  1.286974553096E-01  1.349870199913E-01  1.415839615656E-01  1.467423931104E-01
  1.520887655471E-01  1.576299262629E-01  1.633729721210E-01  1.693252585498E-01
  1.754944089633E-01  1.818883245250E-01  1.885151942671E-01  1.953835055789E-01
  2.025020550769E-01  2.098799598710E-01  2.149473016221E-01  2.201369892725E-01
  2.254519767415E-01  2.308952892679E-01  2.364700251320E-01  2.421793574188E-01
  2.480265358243E-01  2.540148885053E-01  2.601478239733E-01  2.664288330354E-01
  2.728614907802E-01  2.794494586136E-01  2.861964863423E-01  2.931064143086E-01
  3.001831755756E-01  3.074307981667E-01  3.148534073577E-01  3.224552280249E-01
  3.302405870504E-01  3.382139157841E-01  3.463797525668E-01  3.547427453128E-01
  3.633076541556E-01  3.720793541575E-01  3.810628380843E-01  3.902632192470E-01
  3.996857344125E-01  4.093357467842E-01  4.192187490545E-01  4.242493740432E-01
  4.293403665317E-01  4.344924509301E-01  4.397063603412E-01  4.449828366653E-01
  4.503226307053E-01  4.557265022738E-01  4.611952203011E-01  4.667295629447E-01
  4.723303177000E-01  4.779982815124E-01  4.837342608906E-01  4.895390720212E-01
  4.954135408855E-01  5.013585033761E-01  5.073748054166E-01  5.134633030816E-01
  5.196248627186E-01  5.258603610712E-01  5.321706854041E-01  5.385567336290E-01
  5.450194144325E-01  5.515596474057E-01  5.581783631746E-01  5.648765035327E-01
  5.716550215750E-01  5.785148818339E-01  5.854570604160E-01  5.924825451409E-01
  5.995923356826E-01  6.067874437108E-01  6.140688930354E-01  6.214377197518E-01
  6.288949723888E-01  6.364417120575E-01  6.440790126022E-01  6.518079607534E-01
  6.596296562824E-01  6.675452121578E-01  6.755557547037E-01  6.836624237601E-01
  6.918663728453E-01  7.001687693194E-01  7.085707945512E-01  7.170736440859E-01
  7.256785278149E-01  7.343866701487E-01  7.431993101905E-01  7.521177019127E-01
  7.611431143357E-01  7.702768317077E-01  7.795201536882E-01  7.888743955325E-01
  7.983408882789E-01  8.079209789382E-01  8.176160306855E-01  8.274274230537E-01
  8.373565521303E-01  8.474048307559E-01  8.575736887250E-01  8.678645729897E-01
  8.782789478655E-01  8.888182952399E-01  8.994841147828E-01  9.102779241602E-01
  9.212012592501E-01  9.322556743611E-01  9.434427424535E-01  9.547640553629E-01
  9.662212240273E-01  9.778158787156E-01  9.895496692602E-01  1.001424265291E+00
  1.013441356475E+00  1.025602652752E+00  1.037909884586E+00  1.050364803201E+00
  1.062969180839E+00  1.075724811009E+00  1.088633508741E+00  1.101697110846E+00
  1.114917476176E+00  1.128296485890E+00  1.141836043721E+00  1.155538076246E+00
  1.169404533161E+00  1.183437387559E+00  1.197638636209E+00  1.212010299844E+00
  1.226554423442E+00  1.241273076523E+00  1.256168353441E+00  1.271242373683E+00
  1.286497282167E+00  1.301935249553E+00  1.317558472548E+00  1.333369174218E+00
  1.349369604309E+00  1.365562039560E+00  1.381948784035E+00  1.398532169444E+00
  1.415314555477E+00  1.432298330143E+00  1.449485910104E+00  1.466879741026E+00
  1.484482297918E+00  1.502296085493E+00  1.520323638519E+00  1.538567522181E+00
  1.557030332447E+00  1.575714696437E+00  1.594623272794E+00  1.613758752067E+00
  1.633123857092E+00  1.652721343377E+00  1.672553999498E+00  1.692624647492E+00
  1.712936143262E+00  1.733491376981E+00  1.754293273505E+00  1.775344792787E+00
  1.796648930300E+00  1.818208717464E+00  1.840027222073E+00  1.862107548738E+00
  1.884452839323E+00  1.907066273395E+00  1.929951068676E+00  1.953110481500E+00
  1.976547807278E+00  2.000266380965E+00  2.024269577537E+00  2.048560812467E+00
  2.073143542217E+00  2.098021264723E+00  2.123197519900E+00  2.148675890139E+00
  2.174460000820E+00  2.200553520830E+00  2.226960163080E+00  2.253683685037E+00
  2.280727889258E+00  2.308096623929E+00  2.335793783416E+00  2.363823308817E+00
  2.392189188523E+00  2.420895458785E+00  2.449946204290E+00  2.479345558742E+00
  2.509097705447E+00  2.539206877912E+00  2.569677360447E+00  2.600513488772E+00
  2.631719650638E+00  2.663300286445E+00  2.695259889883E+00  2.727603008561E+00
  2.760334244664E+00  2.793458255600E+00  2.826979754667E+00  2.860903511723E+00
  2.895234353864E+00  2.929977166110E+00  2.965136892104E+00  3.000718534809E+00
  3.036727157226E+00  3.073167883113E+00  3.110045897711E+00  3.147366448483E+00
  3.185134845865E+00  3.223356464015E+00  3.262036741583E+00  3.301181182482E+00
  3.340795356672E+00  3.380884900952E+00  3.421455519764E+00  3.462512986001E+00
  3.504063141833E+00  3.546111899535E+00  3.588665242329E+00  3.631729225237E+00
  3.675309975940E+00  3.719413695651E+00  3.764046659999E+00  3.809215219919E+00
  3.854925802558E+00  3.901184912189E+00  3.947999131135E+00  3.995375120709E+00
  4.043319622157E+00  4.091839457623E+00  4.140941531115E+00  4.190632829488E+00
  4.240920423442E+00  4.291811468523E+00  4.343313206145E+00  4.395432964619E+00
  4.448178160195E+00  4.501556298117E+00  4.555574973694E+00  4.610241873379E+00
  4.665564775859E+00  4.721551553170E+00  4.778210171808E+00  4.835548693869E+00
  4.893575278196E+00  4.952298181534E+00  5.011725759713E+00  5.071866468829E+00
  5.132728866455E+00  5.194321612852E+00  5.256653472207E+00  5.319733313873E+00
  5.383570113640E+00  5.448172955003E+00  5.513551030463E+00  5.579713642829E+00
  5.646670206543E+00  5.714430249021E+00  5.783003412010E+00  5.852399452954E+00
  5.922628246389E+00  5.993699785346E+00  6.065624182770E+00  6.138411672963E+00
  6.212072613039E+00  6.286617484395E+00  6.362056894208E+00  6.438401576939E+00
  6.515662395862E+00  6.593850344612E+00  6.672976548748E+00  6.753052267332E+00
  6.834088894540E+00  6.916097961275E+00  6.999091136810E+00  7.083080230452E+00
  7.168077193217E+00  7.254094119536E+00  7.341143248970E+00  7.429236967958E+00
  7.518387811574E+00  7.608608465312E+00  7.699911766896E+00  7.792310708099E+00
  7.885818436596E+00  7.980448257835E+00  8.076213636929E+00  8.173128200572E+00
  8.271205738979E+00  8.370460207847E+00  8.470905730341E+00  8.572556599105E+00
  8.675427278295E+00  8.779532405634E+00  8.884886794502E+00  8.991505436036E+00
  9.099403501268E+00  9.208596343283E+00  9.319099499403E+00  9.430928693396E+00
  9.544099837716E+00  9.658629035769E+00  9.774532584198E+00  9.891826975209E+00
  1.001052889891E+01  1.013065524570E+01  1.025222310865E+01  1.037524978595E+01
  1.049975278338E+01  1.062574981678E+01  1.075325881458E+01  1.088229792036E+01
  1.101288549540E+01  1.114504012135E+01  1.127878060280E+01  1.141412597004E+01
  1.155109548168E+01  1.168970862746E+01  1.182998513099E+01  1.197194495256E+01
  1.211560829199E+01  1.226099559149E+01  1.240812753859E+01  1.255702506906E+01
  1.270770936988E+01  1.286020188232E+01  1.301452430491E+01  1.317069859657E+01
  1.332874697973E+01  1.348869194348E+01  1.365055624681E+01  1.381436292177E+01
  1.398013527683E+01  1.414789690015E+01  1.431767166295E+01  1.448948372291E+01
  1.466335752758E+01  1.483931781791E+01  1.501738963173E+01  1.519759830731E+01
  1.537996948700E+01  1.556452912084E+01  1.575130347029E+01  1.594031911194E+01
  1.613160294128E+01  1.632518217657E+01  1.652108436269E+01  1.671933737505E+01
  1.691996942355E+01  1.712300905663E+01  1.732848516531E+01  1.753642698729E+01
  1.774686411114E+01  1.795982648047E+01  1.817534439824E+01  1.839344853102E+01
  1.861416991339E+01  1.883753995235E+01  1.906359043178E+01  1.929235351696E+01
  1.952386175916E+01  1.975814810027E+01  1.999524587748E+01  2.023518882801E+01
  2.047801109394E+01  2.072374722707E+01  2.097243219379E+01  2.122410138012E+01
  2.147879059668E+01  2.173653608384E+01  2.199737451685E+01  2.226134301105E+01
  2.252847912718E+01  2.279882087671E+01  2.307240672723E+01  2.334927560796E+01
  2.362946691525E+01  2.391302051823E+01  2.419997676445E+01  2.449037648563E+01
  2.478426100345E+01  2.508167213550E+01  2.538265220112E+01  2.568724402754E+01
  2.599549095587E+01  2.630743684734E+01  2.662312608950E+01  2.694260360258E+01
  2.726591484581E+01  2.759310582396E+01  2.792422309385E+01  2.825931377097E+01
  2.859842553622E+01  2.894160664266E+01  2.928890592237E+01  2.964037279344E+01
  2.999605726696E+01  3.035600995416E+01  3.072028207361E+01  3.108892545850E+01
  3.146199256400E+01  3.183953647477E+01  3.222161091246E+01  3.260827024341E+01
  3.299956948633E+01  3.339556432017E+01  3.379631109201E+01  3.420186682512E+01
  3.461228922702E+01  3.502763669774E+01  3.544796833812E+01  3.587334395817E+01
  3.630382408567E+01  3.673946997470E+01  3.718034361440E+01  3.762650773777E+01
  3.807802583062E+01  3.853496214059E+01  3.899738168628E+01  3.946535026651E+01
  3.993893446971E+01  4.041820168335E+01  4.090322010355E+01  4.139405874479E+01
  4.189078744973E+01  4.239347689912E+01  4.290219862191E+01  4.341702500538E+01
  4.393802930544E+01  4.446528565711E+01
</grid-data>
</grid>
<valence-charge total-charge="27" is-unscreening-charge="yes"
 rescaled-to-z-pseudo="no">
<radfunc>
<data npts="458">
  7.296241556360E+00  7.296582950742E+00  7.297603426641E+00  7.299305842030E+00
  7.301803862350E+00  7.304991731601E+00  7.309056493252E+00  7.313715348461E+00
  7.318961939604E+00  7.325095324072E+00  7.332034034679E+00  7.339614362611E+00
  7.348841636236E+00  7.358571919930E+00  7.368405113870E+00  7.379894527549E+00
  7.393374775366E+00  7.406434816666E+00  7.421488151212E+00  7.438933132566E+00
  7.459279136112E+00  7.478081017599E+00  7.499584297196E+00  7.524320562707E+00
  7.552954675296E+00  7.586321401959E+00  7.625471959767E+00  7.659416181889E+00
  7.698037474577E+00  7.742151904237E+00  7.792732132303E+00  7.850936904929E+00
  7.918145482583E+00  7.995997606688E+00  8.086439589536E+00  8.191777064096E+00
  8.314734826324E+00  8.458524024106E+00  8.567793736195E+00  8.689257794958E+00
  8.824327045008E+00  8.974562331960E+00  9.141686645474E+00  9.327597395059E+00
  9.534378595708E+00  9.764312681139E+00  1.001989159381E+01  1.030382672265E+01
  1.061905717095E+01  1.096875573883E+01  1.135633189601E+01  1.178543090472E+01
  1.225992812808E+01  1.278391743195E+01  1.336169245907E+01  1.399771943041E+01
  1.469660001539E+01  1.546302271902E+01  1.630170117045E+01  1.721729767648E+01
  1.821433044053E+01  1.929706295908E+01  2.046937431432E+01  2.173460940319E+01
  2.309540860363E+01  2.455351699933E+01  2.610957408695E+01  2.692417515756E+01
  2.776288589272E+01  2.862537141830E+01  2.951118264046E+01  3.041974822026E+01
  3.135036654466E+01  3.230219775997E+01  3.327425594197E+01  3.426540148456E+01
  3.527433379688E+01  3.629958440692E+01  3.733951057751E+01  3.839228954819E+01
  3.945591352383E+01  4.052818553761E+01  4.160671632190E+01  4.268892232571E+01
  4.377202502128E+01  4.485305164484E+01  4.592883751775E+01  4.699603009281E+01
  4.805109486788E+01  4.909032330326E+01  5.010984287090E+01  5.110562935291E+01
  5.207352149209E+01  5.300923808000E+01  5.390839754668E+01  5.476654009153E+01
  5.557915236600E+01  5.634169468661E+01  5.704963072058E+01  5.769845954649E+01
  5.828374994944E+01  5.880117676397E+01  5.924655902914E+01  5.961589966965E+01
  5.990542636462E+01  6.011163321341E+01  6.023132275589E+01  6.026164785438E+01
  6.020015289738E+01  6.004481374208E+01  5.979407577566E+01  5.944688944564E+01
  5.900274258837E+01  5.846168887453E+01  5.782437169200E+01  5.709204280139E+01
  5.626657512947E+01  5.535046911112E+01  5.434685205286E+01  5.325947007033E+01
  5.209267224843E+01  5.085138678635E+01  4.954108901862E+01  4.816776134654E+01
  4.673784527004E+01  4.525818587460E+01  4.373596929882E+01  4.217865388090E+01
  4.059389585294E+01  3.898947061433E+01  3.737319076620E+01  3.575282222049E+01
  3.413599980559E+01  3.253014386986E+01  3.094237943006E+01  2.937945941929E+01
  2.784769355595E+01  2.635288427855E+01  2.490027107100E+01  2.349448433976E+01
  2.213950980068E+01  2.083866409364E+01  1.959458207382E+01  1.840921593656E+01
  1.728384602836E+01  1.621910288927E+01  1.521499977370E+01  1.427097461768E+01
  1.338594017412E+01  1.255834083165E+01  1.178621447846E+01  1.106725767535E+01
  1.039889236837E+01  9.778332400903E+00  9.202648178151E+00  8.668827987949E+00
  8.173834683984E+00  7.714656680071E+00  7.288352475016E+00  6.892088212818E+00
  6.523168068121E+00  6.179057517786E+00  5.857399803299E+00  5.556026094748E+00
  5.272960027242E+00  5.006417390343E+00  4.754801809110E+00  4.516697264191E+00
  4.290858263385E+00  4.076198406271E+00  3.871777986477E+00  3.676791163222E+00
  3.490553115243E+00  3.312487475002E+00  3.142114236807E+00  2.979038244298E+00
  2.822938293950E+00  2.673556842910E+00  2.530690281249E+00  2.394179719326E+00
  2.263899588528E+00  2.139736733334E+00  2.021567726613E+00  1.909255688939E+00
  1.802653792607E+00  1.701604054606E+00  1.605938147277E+00  1.515478106189E+00
  1.430037223668E+00  1.349421086425E+00  1.273428737670E+00  1.201853942212E+00
  1.134486939424E+00  1.071117830746E+00  1.011540791641E+00  9.555547395344E-01
  9.029639361852E-01  8.535785000320E-01  8.072148280771E-01  7.636959201249E-01
  7.228516001043E-01  6.845186376381E-01  6.485408013510E-01  6.147688909155E-01
  5.830607456227E-01  5.532812024355E-01  5.253020144616E-01  4.990017421435E-01
  4.742656211705E-01  4.509854149241E-01  4.290592806845E-01  4.083917129720E-01
  3.888934958580E-01  3.704814578162E-01  3.530782033645E-01  3.366118513993E-01
  3.210157655699E-01  3.062282841473E-01  2.921924504179E-01  2.788557451857E-01
  2.661698228192E-01  2.540902521060E-01  2.425762630383E-01  2.315905005077E-01
  2.210987857491E-01  2.110698862370E-01  2.014752946069E-01  1.922890170535E-01
  1.834873715410E-01  1.750487960562E-01  1.669536670365E-01  1.591841280200E-01
  1.517239284837E-01  1.445582727699E-01  1.376736789381E-01  1.310578473297E-01
  1.246995385873E-01  1.185884608336E-01  1.127151656846E-01  1.070709527472E-01
  1.016477822310E-01  9.643819529032E-02  9.143524170386E-02  8.663241448885E-02
  8.202359104858E-02  7.760298044904E-02  7.336507642448E-02  6.930461571727E-02
  6.541654136439E-02  6.169597055296E-02  5.813816667823E-02  5.473851525087E-02
  5.149250331450E-02  4.839570205086E-02  4.544375226700E-02  4.263235247745E-02
  3.995724931382E-02  3.741423001409E-02  3.499911676473E-02  3.270776268196E-02
  3.053604928621E-02  2.847988522240E-02  2.653520615844E-02  2.469797569067E-02
  2.296418714576E-02  2.132986617234E-02  1.979107402415E-02  1.834391144167E-02
  1.698452304228E-02  1.570910212939E-02  1.451389582998E-02  1.339521046806E-02
  1.234941707936E-02  1.137295697142E-02  1.046234723279E-02  9.614186097226E-03
  8.825158072250E-03  8.092038747796E-03  7.411699208941E-03  6.781109986713E-03
  6.197344492686E-03  5.657581895572E-03  5.159109411097E-03  4.699323989382E-03
  4.275733396575E-03  3.885956699029E-03  3.527724168721E-03  3.198876637583E-03
  2.897364335860E-03  2.621245255494E-03  2.368683083809E-03  2.137944755670E-03
  1.927397673710E-03  1.735506646523E-03  1.560830593922E-03  1.402019066688E-03
  1.257808625810E-03  1.127019123357E-03  1.008549923809E-03  9.013760993219E-04
  8.045446380639E-04  7.171706686944E-04  6.384337709079E-04  5.675743564041E-04
  5.038900920597E-04  4.467324992319E-04  3.955036723714E-04  3.496530700934E-04
  3.086744578601E-04  2.721029951242E-04  2.395124511388E-04  2.105125546858E-04
  1.847464776017E-04  1.618884495106E-04  1.416415008713E-04  1.237353308892E-04
  1.079242964737E-04  9.398551818003E-05  8.171709893249E-05  7.093645125907E-05
  6.147872875740E-05  5.319535753716E-05  4.595266343453E-05  3.963059085748E-05
  3.412150918935E-05  2.932910274894E-05  2.516734037361E-05  2.155952075870E-05
  1.843738975068E-05  1.574032585476E-05  1.341459028144E-05  1.141263792245E-05
  9.692485715966E-06  8.217134936459E-06  6.954044025110E-06  5.874648665849E-06
  4.953925907609E-06  4.169999237125E-06  3.503781617409E-06  2.938653624571E-06
  2.460173939094E-06  2.055819576030E-06  1.714753370730E-06  1.427616371545E-06
  1.186342927166E-06  9.839963927967E-07  8.146235150534E-07  6.731256892547E-07
  5.551454137293E-07  4.569663930584E-07  3.754258650575E-07  3.078378442142E-07
  2.519260867409E-07  2.057656890178E-07  1.677323317448E-07  1.364582764303E-07
  1.107943088688E-07  8.977690601795E-08  7.259997826550E-08  5.859060863760E-08
  4.718827423453E-08  3.792709333504E-08  3.042069445307E-08  2.434935145603E-08
  1.944907196883E-08  1.550236500895E-08  1.233044844329E-08  9.786687743635E-09
  7.751084953366E-09  6.125661063932E-09  4.830596422648E-09  3.801012626893E-09
  2.984295861407E-09  2.337876045781E-09  1.827388702538E-09  1.425157338838E-09
  1.108943546599E-09  8.609201396630E-10  6.668296195783E-10  5.152962353620E-10
  3.972650045923E-10  3.055454071997E-10  2.344411506799E-10  1.794505259057E-10
  1.370245054442E-10  1.043719508435E-10  7.930315257305E-11  6.010447920519E-11
  4.543820700984E-11  3.426267717250E-11  2.576881958994E-11  1.932981903026E-11
  1.446130648661E-11  1.078995719858E-11  8.028785218095E-12  5.957757908911E-12
  4.408625327648E-12  3.253079900751E-12  2.393540276370E-12  1.755997272083E-12
  1.284475758557E-12  9.367593332737E-13  6.810990547491E-13  4.936868697456E-13
  3.567215853353E-13  2.569326354698E-13  1.844568594518E-13  1.319850036700E-13
  7.809056247062E-15  5.229160295186E-15  3.485772440253E-15  2.313003208333E-15
  1.527705807578E-15  1.004304453238E-15  6.570959496399E-16  4.278634764748E-16
  2.772487802008E-16  1.787708687987E-16  1.146993357415E-16  7.322108432349E-17
  4.650463622095E-17  2.938425010002E-17  1.846989121177E-17  1.154830387593E-17
  7.182053800221E-18  4.442503737990E-18  2.732923159711E-18  1.671933287434E-18
  1.017122964669E-18  6.152642848493E-19  3.700445959565E-19  2.212689975740E-19
  1.315318342353E-19  7.772384706413E-20  4.565199189537E-20  2.665113791436E-20
  1.546288533305E-20  8.915626242158E-21  5.108190781107E-21  2.908059598514E-21
  1.644852797596E-21  9.242820333536E-22  5.159427433025E-22  2.860772996440E-22
  1.575488071997E-22  8.617100852607E-23  4.680428481149E-23  2.524364075958E-23
  1.351833919493E-23  7.187236299447E-24  3.793415753982E-24  0.000000000000E+00
  0.000000000000E+00  0.000000000000E+00  0.000000000000E+00  0.000000000000E+00
  0.000000000000E+00  0.000000000000E+00
</data>
</radfunc>
</valence-charge>
<pseudocore-charge matching-radius="0.636441712057"
 number-of-continuous-derivatives="4">
<annotation model-charge-form="Teter function with specified parameters" />
<radfunc>
<data npts="291">
  3.115393242983E+02  3.115062529501E+02  3.114073993862E+02  3.112425037437E+02
  3.110006062415E+02  3.106920593395E+02  3.102989910778E+02  3.098491288367E+02
  3.093436063730E+02  3.087544876008E+02  3.080909667810E+02  3.073703867439E+02
  3.065003892133E+02  3.055927775789E+02  3.046871291188E+02  3.036452293304E+02
  3.024471325044E+02  3.013131261236E+02  3.000402202495E+02  2.986120800139E+02
  2.970106316325E+02  2.955913523729E+02  2.940372959875E+02  2.923364686523E+02
  2.904759779446E+02  2.884420021231E+02  2.862197674125E+02  2.844201154883E+02
  2.824987399656E+02  2.804483447903E+02  2.782613408126E+02  2.759298579273E+02
  2.734457623572E+02  2.708006798990E+02  2.679860260386E+02  2.649930439204E+02
  2.618128512441E+02  2.584364972367E+02  2.560721934692E+02  2.536140910834E+02
  2.510595819198E+02  2.484060990536E+02  2.456511315963E+02  2.427922409436E+02
  2.398270785429E+02  2.367534052471E+02  2.335691123167E+02  2.302722441224E+02
  2.268610225912E+02  2.233338734248E+02  2.196894541028E+02  2.159266836636E+02
  2.120447742329E+02  2.080432642415E+02  2.039220532438E+02  1.996814382090E+02
  1.953221511187E+02  1.908453976551E+02  1.862528967121E+02  1.815469204039E+02
  1.767303341807E+02  1.718066365932E+02  1.667799981725E+02  1.616552988105E+02
  1.564381629491E+02  1.511349917938E+02  1.457529916867E+02  1.430349088303E+02
  1.403001976866E+02  1.375499950405E+02  1.347854913207E+02  1.320079307567E+02
  1.292186114000E+02  1.264188849994E+02  1.236101567213E+02  1.207938847029E+02
  1.179715794317E+02  1.151448029385E+02  1.123151677948E+02  1.094843359063E+02
  1.066540170907E+02  1.038259674329E+02  1.010019874060E+02  9.818391975366E+01
  9.537364712166E+01  9.257308943517E+01  8.978420101344E+01  8.700896741723E+01
  8.424940202464E+01  8.150754233213E+01  7.878544597879E+01  7.608518649368E+01
  7.340884876726E+01  7.075852424980E+01  6.813630588170E+01  6.554428276234E+01
  6.298453456653E+01  6.045912571963E+01  5.797009934518E+01  5.551947100101E+01
  5.310922222276E+01  5.074129389637E+01  4.841757948384E+01  4.613991812966E+01
  4.391008767794E+01  4.172979763352E+01  3.960068210304E+01  3.752429275484E+01
  3.550209183964E+01  3.353544531614E+01  3.162561612866E+01  2.977375768608E+01
  2.798090759322E+01  2.624798168790E+01  2.457576843813E+01  2.296492375483E+01
  2.141596627616E+01  1.992927317953E+01  1.850507657668E+01  1.714346054630E+01
  1.584435885654E+01  1.460755342746E+01  1.343267358002E+01  1.231919611417E+01
  1.126644625361E+01  1.027359948930E+01  9.339684346861E+00  8.463586096033E+00
  7.644051411791E+00  6.879693988114E+00  6.169001095505E+00  5.510341063219E+00
  4.901971656309E+00  4.342049306357E+00  3.828639143275E+00  3.359725763876E+00
  2.933224661331E+00  2.546994228236E+00  2.198848235095E+00  1.886568675733E+00
  1.607918861780E+00  1.360656640134E+00  1.142547600418E+00  9.513781342151E-01
  7.849682044180E-01  6.411836817056E-01  5.179481060070E-01  4.132537341183E-01
  3.251717404352E-01  2.518614461688E-01  1.915784634311E-01  1.426816541732E-01
  1.036388200279E-01  7.303105747314E-02  4.955573314425E-02  3.202805625257E-02
  1.938124852842E-02  1.066533641756E-02  5.044614902376E-03  1.793856704940E-03
  2.933641365003E-04  2.298284062020E-05  5.552164822420E-04  1.547598426224E-03
  2.734490029213E-03  3.918484805001E-03  4.961602971626E-03  5.776461417873E-03
  6.317599743270E-03  6.573133690797E-03  6.556893138323E-03  6.301183156966E-03
  5.850283979304E-03  5.254779722838E-03  4.566777223219E-03  3.836046326773E-03
  3.107082559562E-03  2.417063383719E-03  1.794641441538E-03  1.259493407041E-03
  8.225223517856E-04  4.865957715416E-04  2.476912897014E-04  9.631797195313E-05
  1.908328026611E-05  2.837702997968E-07  2.341117859239E-05  7.248372762319E-05
  1.331341956858E-04  1.934102317994E-04  2.442670752559E-04  2.797567409278E-04
  2.969393762842E-04  2.955605547551E-04  2.775516629461E-04  2.464185239451E-04
  2.065856372586E-04  1.627600113131E-04  1.193700655006E-04  8.012244409665E-05
  4.770410961351E-05  2.364029295764E-05  8.302390947326E-06  1.045280297015E-06
  4.421134604940E-07  4.577479791512E-06  1.135740249124E-05  1.879702402164E-05
  2.525350660273E-05  2.958165842916E-05  3.120174062684E-05  3.008125624755E-05
  2.664369522422E-05  2.162581688183E-05  1.591007180702E-05  1.035968508003E-05
  5.680815373708E-06  2.329719697900E-06  4.741276848032E-07  0.000000000000E+00
  0.000000000000E+00  0.000000000000E+00  0.000000000000E+00  0.000000000000E+00
  0.000000000000E+00  0.000000000000E+00  0.000000000000E+00  0.000000000000E+00
  0.000000000000E+00  0.000000000000E+00  0.000000000000E+00  0.000000000000E+00
  0.000000000000E+00  0.000000000000E+00  0.000000000000E+00  0.000000000000E+00
  0.000000000000E+00  0.000000000000E+00  0.000000000000E+00  0.000000000000E+00
  0.000000000000E+00  0.000000000000E+00  0.000000000000E+00  0.000000000000E+00
  0.000000000000E+00  0.000000000000E+00  0.000000000000E+00  0.000000000000E+00
  0.000000000000E+00  0.000000000000E+00  0.000000000000E+00  0.000000000000E+00
  0.000000000000E+00  0.000000000000E+00  0.000000000000E+00  0.000000000000E+00
  0.000000000000E+00  0.000000000000E+00  0.000000000000E+00  0.000000000000E+00
  0.000000000000E+00  0.000000000000E+00  0.000000000000E+00  0.000000000000E+00
  0.000000000000E+00  0.000000000000E+00  0.000000000000E+00  0.000000000000E+00
  0.000000000000E+00  0.000000000000E+00  0.000000000000E+00  0.000000000000E+00
  0.000000000000E+00  0.000000000000E+00  0.000000000000E+00  0.000000000000E+00
  0.000000000000E+00  0.000000000000E+00  0.000000000000E+00  0.000000000000E+00
  0.000000000000E+00  0.000000000000E+00  0.000000000000E+00  0.000000000000E+00
  0.000000000000E+00  0.000000000000E+00  0.000000000000E+00  0.000000000000E+00
  0.000000000000E+00  0.000000000000E+00  0.000000000000E+00
</data>
</radfunc>
</pseudocore-charge>
<semilocal-potentials set="scalar_relativistic">
<slps n="5" l="s" rc="2.30809662393" eref="-2.68386552087">
<radfunc>
<data npts="291">
 -2.981911966971E+01 -2.981916544636E+01 -2.981930224464E+01 -2.981953043085E+01
 -2.981986517341E+01 -2.982029214670E+01 -2.982083608145E+01 -2.982145860557E+01
 -2.982215814574E+01 -2.982297335165E+01 -2.982389148665E+01 -2.982488853409E+01
 -2.982609225057E+01 -2.982734789741E+01 -2.982860068762E+01 -2.983004174485E+01
 -2.983169850471E+01 -2.983326624703E+01 -2.983502548061E+01 -2.983699846984E+01
 -2.983920972397E+01 -2.984116824924E+01 -2.984331127864E+01 -2.984565467578E+01
 -2.984821527554E+01 -2.985101082395E+01 -2.985405986754E+01 -2.985652452032E+01
 -2.985915076854E+01 -2.986194686405E+01 -2.986492096064E+01 -2.986808095834E+01
 -2.987143430209E+01 -2.987498772341E+01 -2.987874691052E+01 -2.988271608897E+01
 -2.988689749086E+01 -2.989129068523E+01 -2.989433537487E+01 -2.989747029761E+01
 -2.990069215084E+01 -2.990399637820E+01 -2.990737694784E+01 -2.991082609700E+01
 -2.991433403842E+01 -2.991788862385E+01 -2.992147495939E+01 -2.992507496721E+01
 -2.992866688798E+01 -2.993222471809E+01 -2.993571757599E+01 -2.993910899222E+01
 -2.994235611824E+01 -2.994540885041E+01 -2.994820886668E+01 -2.995068857596E+01
 -2.995276998252E+01 -2.995436347177E+01 -2.995536652743E+01 -2.995566239560E+01
 -2.995511871632E+01 -2.995358614934E+01 -2.995089702590E+01 -2.994686406292E+01
 -2.994127917850E+01 -2.993391244659E+01 -2.992451122425E+01 -2.991896234579E+01
 -2.991279947471E+01 -2.990598437371E+01 -2.989847729528E+01 -2.989023697728E+01
 -2.988122064093E+01 -2.987138399081E+01 -2.986068121646E+01 -2.984906499534E+01
 -2.983648649668E+01 -2.982289538619E+01 -2.980823983141E+01 -2.979246650790E+01
 -2.977552060647E+01 -2.975734584223E+01 -2.973788446603E+01 -2.971707727961E+01
 -2.969486365584E+01 -2.967118156561E+01 -2.964596761350E+01 -2.961915708418E+01
 -2.959068400201E+01 -2.956048120619E+01 -2.952848044422E+01 -2.949461248611E+01
 -2.945880726219E+01 -2.942099402731E+01 -2.938110155394E+01 -2.933905835708E+01
 -2.929479295327E+01 -2.924823415610E+01 -2.919931140989E+01 -2.914795516269E+01
 -2.909409727885E+01 -2.903767148995E+01 -2.897861388141E+01 -2.891686341034E+01
 -2.885236244765E+01 -2.878505733553E+01 -2.871489894888E+01 -2.864184324728E+01
 -2.856585180237E+01 -2.848689228470E+01 -2.840493889373E+01 -2.831997271550E+01
 -2.823198199471E+01 -2.814096231000E+01 -2.804691664549E+01 -2.794985535507E+01
 -2.784979602039E+01 -2.774676320687E+01 -2.764078812558E+01 -2.753190821067E+01
 -2.742016662306E+01 -2.730561169089E+01 -2.718829629603E+01 -2.706827721363E+01
 -2.694561440929E+01 -2.682037029597E+01 -2.669260895033E+01 -2.656239528750E+01
 -2.642979419330E+01 -2.629486961469E+01 -2.615768361363E+01 -2.601829539478E+01
 -2.587676032599E+01 -2.573312897908E+01 -2.558744622910E+01 -2.543975045905E+01
 -2.529007292444E+01 -2.513843733407E+01 -2.498485969869E+01 -2.482934848482E+01
 -2.467190508609E+01 -2.451252459004E+01 -2.435119677827E+01 -2.418790726052E+01