<?xml version="1.0" encoding="UTF-8" ?>
<psml version="1.1" energy_unit="hartree" length_unit="bohr"
 uuid="ae1110a0-1d60-11e8-6866-6bf42afb212e"
 xmlns="http://esl.cecam.org/PSML/ns/1.1">
<provenance creator="ONCVPSP-3.3.0+psml-3.3.0-73 (scalar-relativistic)"
 date="2018-03-01">
<annotation action="semilocal-pseudopotential-generation"
 action-cont="projectors-generation" />
<input-file name="oncvpsp-input">
<![CDATA[# atsym z nc nv iexc psfile
Ta 73 10 4 -116133 upf
# n l f
1 0 2.0
2 0 2.0
2 1 6.0
3 0 2.0
3 1 6.0
3 2 10.0
4 0 2.0
4 1 6.0
4 2 10.0
4 3 14.0
5 0 2.0
5 1 6.0
5 2 3.0
6 0 2.0
# lmax
3
# l rc ep ncon nbas qcut
0 1.7 0.0 4 8 7.0
1 1.7 0.0 4 8 7.4
2 1.7 0.0 4 9 6.6
3 2.25 0.5 4 8 6.8
# lloc lpopt rc5 dvloc0
4 5 1.6 0.0
# l nproj debl
0 2 2.0
1 2 1.5
2 2 1.8
3 2 2.5
# icmod fcfact rcfact
3 5.0 1.36
# epsh1 epsh2 depsh
-12.0 12.0 0.02
# rlmax drl
6.0 0.01
 0
]]>
</input-file>
</provenance>
<pseudo-atom-spec atomic-label="Ta" atomic-number="73" z-pseudo="13"
 flavor="Hamann&apos;s oncvpsp" relativity="scalar" spin-dft="no"
 core-corrections="yes">
<annotation pseudo-energy="-58.7417152892" />
<exchange-correlation>
<annotation oncvpsp-xc-code="-116133" oncvpsp-xc-type="libxc-interface" />
<libxc-info number-of-functionals="2">
<functional name="Perdew, Burke &amp; Ernzerhof SOL (GGA)" type="exchange"
 id="116" />
<functional name="Perdew, Burke &amp; Ernzerhof SOL (GGA)" type="correlation"
 id="133" />
</libxc-info>
</exchange-correlation>
<valence-configuration total-valence-charge="13">
<shell n="5" l="s" occupation="2" />
<shell n="5" l="p" occupation="6" />
<shell n="5" l="d" occupation="3" />
<shell n="6" l="s" occupation="2" />
</valence-configuration>
</pseudo-atom-spec>
<grid npts="458">
<annotation type="sampled from oncvpsp log grid"
 recipe="r(i:1..N) = r1*exp(a*(i-1)) + r=0; resampled"
 recipe-cont="r1: scale; a: step" scale="0.684931506849E-05"
 step="0.119285708653E-01" delta="0.500000000000E-02" rmax="44.4652856571" />
<grid-data>
  0.000000000000E+00  5.017305651402E-03  1.002167429467E-02  1.503410950261E-02
  2.025771802601E-02  2.541091241664E-02  3.075448503181E-02  3.591328416708E-02
  4.094876041219E-02  4.613663167149E-02  5.136537901594E-02  5.650860641260E-02
  6.216682636963E-02  6.758063756162E-02  7.259477435141E-02  7.798093438119E-02
  8.376671986784E-02  8.891480333121E-02  9.437927453650E-02  1.001795778466E-01
  1.063363526242E-01  1.115331093606E-01  1.169838364460E-01  1.227009456482E-01
  1.286974553096E-01  1.349870199913E-01  1.415839615656E-01  1.467423931104E-01
  1.520887655471E-01  1.576299262629E-01  1.633729721210E-01  1.693252585498E-01
  1.754944089633E-01  1.818883245250E-01  1.885151942671E-01  1.953835055789E-01
  2.025020550769E-01  2.098799598710E-01  2.149473016221E-01  2.201369892725E-01
  2.254519767415E-01  2.308952892679E-01  2.364700251320E-01  2.421793574188E-01
  2.480265358243E-01  2.540148885053E-01  2.601478239733E-01  2.664288330354E-01
  2.728614907802E-01  2.794494586136E-01  2.861964863423E-01  2.931064143086E-01
  3.001831755756E-01  3.074307981667E-01  3.148534073577E-01  3.224552280249E-01
  3.302405870504E-01  3.382139157841E-01  3.463797525668E-01  3.547427453128E-01
  3.633076541556E-01  3.720793541575E-01  3.810628380843E-01  3.902632192470E-01
  3.996857344125E-01  4.093357467842E-01  4.192187490545E-01  4.242493740432E-01
  4.293403665317E-01  4.344924509301E-01  4.397063603412E-01  4.449828366653E-01
  4.503226307053E-01  4.557265022738E-01  4.611952203011E-01  4.667295629447E-01
  4.723303177000E-01  4.779982815124E-01  4.837342608906E-01  4.895390720212E-01
  4.954135408855E-01  5.013585033761E-01  5.073748054166E-01  5.134633030816E-01
  5.196248627186E-01  5.258603610712E-01  5.321706854041E-01  5.385567336290E-01
  5.450194144325E-01  5.515596474057E-01  5.581783631746E-01  5.648765035327E-01
  5.716550215750E-01  5.785148818339E-01  5.854570604160E-01  5.924825451409E-01
  5.995923356826E-01  6.067874437108E-01  6.140688930354E-01  6.214377197518E-01
  6.288949723888E-01  6.364417120575E-01  6.440790126022E-01  6.518079607534E-01
  6.596296562824E-01  6.675452121578E-01  6.755557547037E-01  6.836624237601E-01
  6.918663728453E-01  7.001687693194E-01  7.085707945512E-01  7.170736440859E-01
  7.256785278149E-01  7.343866701487E-01  7.431993101905E-01  7.521177019127E-01
  7.611431143357E-01  7.702768317077E-01  7.795201536882E-01  7.888743955325E-01
  7.983408882789E-01  8.079209789382E-01  8.176160306855E-01  8.274274230537E-01
  8.373565521303E-01  8.474048307559E-01  8.575736887250E-01  8.678645729897E-01
  8.782789478655E-01  8.888182952399E-01  8.994841147828E-01  9.102779241602E-01
  9.212012592501E-01  9.322556743611E-01  9.434427424535E-01  9.547640553629E-01
  9.662212240273E-01  9.778158787156E-01  9.895496692602E-01  1.001424265291E+00
  1.013441356475E+00  1.025602652752E+00  1.037909884586E+00  1.050364803201E+00
  1.062969180839E+00  1.075724811009E+00  1.088633508741E+00  1.101697110846E+00
  1.114917476176E+00  1.128296485890E+00  1.141836043721E+00  1.155538076246E+00
  1.169404533161E+00  1.183437387559E+00  1.197638636209E+00  1.212010299844E+00
  1.226554423442E+00  1.241273076523E+00  1.256168353441E+00  1.271242373683E+00
  1.286497282167E+00  1.301935249553E+00  1.317558472548E+00  1.333369174218E+00
  1.349369604309E+00  1.365562039560E+00  1.381948784035E+00  1.398532169444E+00
  1.415314555477E+00  1.432298330143E+00  1.449485910104E+00  1.466879741026E+00
  1.484482297918E+00  1.502296085493E+00  1.520323638519E+00  1.538567522181E+00
  1.557030332447E+00  1.575714696437E+00  1.594623272794E+00  1.613758752067E+00
  1.633123857092E+00  1.652721343377E+00  1.672553999498E+00  1.692624647492E+00
  1.712936143262E+00  1.733491376981E+00  1.754293273505E+00  1.775344792787E+00
  1.796648930300E+00  1.818208717464E+00  1.840027222073E+00  1.862107548738E+00
  1.884452839323E+00  1.907066273395E+00  1.929951068676E+00  1.953110481500E+00
  1.976547807278E+00  2.000266380965E+00  2.024269577537E+00  2.048560812467E+00
  2.073143542217E+00  2.098021264723E+00  2.123197519900E+00  2.148675890139E+00
  2.174460000820E+00  2.200553520830E+00  2.226960163080E+00  2.253683685037E+00
  2.280727889258E+00  2.308096623929E+00  2.335793783416E+00  2.363823308817E+00
  2.392189188523E+00  2.420895458785E+00  2.449946204290E+00  2.479345558742E+00
  2.509097705447E+00  2.539206877912E+00  2.569677360447E+00  2.600513488772E+00
  2.631719650638E+00  2.663300286445E+00  2.695259889883E+00  2.727603008561E+00
  2.760334244664E+00  2.793458255600E+00  2.826979754667E+00  2.860903511723E+00
  2.895234353864E+00  2.929977166110E+00  2.965136892104E+00  3.000718534809E+00
  3.036727157226E+00  3.073167883113E+00  3.110045897711E+00  3.147366448483E+00
  3.185134845865E+00  3.223356464015E+00  3.262036741583E+00  3.301181182482E+00
  3.340795356672E+00  3.380884900952E+00  3.421455519764E+00  3.462512986001E+00
  3.504063141833E+00  3.546111899535E+00  3.588665242329E+00  3.631729225237E+00
  3.675309975940E+00  3.719413695651E+00  3.764046659999E+00  3.809215219919E+00
  3.854925802558E+00  3.901184912189E+00  3.947999131135E+00  3.995375120709E+00
  4.043319622157E+00  4.091839457623E+00  4.140941531115E+00  4.190632829488E+00
  4.240920423442E+00  4.291811468523E+00  4.343313206145E+00  4.395432964619E+00
  4.448178160195E+00  4.501556298117E+00  4.555574973694E+00  4.610241873379E+00
  4.665564775859E+00  4.721551553170E+00  4.778210171808E+00  4.835548693869E+00
  4.893575278196E+00  4.952298181534E+00  5.011725759713E+00  5.071866468829E+00
  5.132728866455E+00  5.194321612852E+00  5.256653472207E+00  5.319733313873E+00
  5.383570113640E+00  5.448172955003E+00  5.513551030463E+00  5.579713642829E+00
  5.646670206543E+00  5.714430249021E+00  5.783003412010E+00  5.852399452954E+00
  5.922628246389E+00  5.993699785346E+00  6.065624182770E+00  6.138411672963E+00
  6.212072613039E+00  6.286617484395E+00  6.362056894208E+00  6.438401576939E+00
  6.515662395862E+00  6.593850344612E+00  6.672976548748E+00  6.753052267332E+00
  6.834088894540E+00  6.916097961275E+00  6.999091136810E+00  7.083080230452E+00
  7.168077193217E+00  7.254094119536E+00  7.341143248970E+00  7.429236967958E+00
  7.518387811574E+00  7.608608465312E+00  7.699911766896E+00  7.792310708099E+00
  7.885818436596E+00  7.980448257835E+00  8.076213636929E+00  8.173128200572E+00
  8.271205738979E+00  8.370460207847E+00  8.470905730341E+00  8.572556599105E+00
  8.675427278295E+00  8.779532405634E+00  8.884886794502E+00  8.991505436036E+00
  9.099403501268E+00  9.208596343283E+00  9.319099499403E+00  9.430928693396E+00
  9.544099837716E+00  9.658629035769E+00  9.774532584198E+00  9.891826975209E+00
  1.001052889891E+01  1.013065524570E+01  1.025222310865E+01  1.037524978595E+01
  1.049975278338E+01  1.062574981678E+01  1.075325881458E+01  1.088229792036E+01
  1.101288549540E+01  1.114504012135E+01  1.127878060280E+01  1.141412597004E+01
  1.155109548168E+01  1.168970862746E+01  1.182998513099E+01  1.197194495256E+01
  1.211560829199E+01  1.226099559149E+01  1.240812753859E+01  1.255702506906E+01
  1.270770936988E+01  1.286020188232E+01  1.301452430491E+01  1.317069859657E+01
  1.332874697973E+01  1.348869194348E+01  1.365055624681E+01  1.381436292177E+01
  1.398013527683E+01  1.414789690015E+01  1.431767166295E+01  1.448948372291E+01
  1.466335752758E+01  1.483931781791E+01  1.501738963173E+01  1.519759830731E+01
  1.537996948700E+01  1.556452912084E+01  1.575130347029E+01  1.594031911194E+01
  1.613160294128E+01  1.632518217657E+01  1.652108436269E+01  1.671933737505E+01
  1.691996942355E+01  1.712300905663E+01  1.732848516531E+01  1.753642698729E+01
  1.774686411114E+01  1.795982648047E+01  1.817534439824E+01  1.839344853102E+01
  1.861416991339E+01  1.883753995235E+01  1.906359043178E+01  1.929235351696E+01
  1.952386175916E+01  1.975814810027E+01  1.999524587748E+01  2.023518882801E+01
  2.047801109394E+01  2.072374722707E+01  2.097243219379E+01  2.122410138012E+01
  2.147879059668E+01  2.173653608384E+01  2.199737451685E+01  2.226134301105E+01
  2.252847912718E+01  2.279882087671E+01  2.307240672723E+01  2.334927560796E+01
  2.362946691525E+01  2.391302051823E+01  2.419997676445E+01  2.449037648563E+01
  2.478426100345E+01  2.508167213550E+01  2.538265220112E+01  2.568724402754E+01
  2.599549095587E+01  2.630743684734E+01  2.662312608950E+01  2.694260360258E+01
  2.726591484581E+01  2.759310582396E+01  2.792422309385E+01  2.825931377097E+01
  2.859842553622E+01  2.894160664266E+01  2.928890592237E+01  2.964037279344E+01
  2.999605726696E+01  3.035600995416E+01  3.072028207361E+01  3.108892545850E+01
  3.146199256400E+01  3.183953647477E+01  3.222161091246E+01  3.260827024341E+01
  3.299956948633E+01  3.339556432017E+01  3.379631109201E+01  3.420186682512E+01
  3.461228922702E+01  3.502763669774E+01  3.544796833812E+01  3.587334395817E+01
  3.630382408567E+01  3.673946997470E+01  3.718034361440E+01  3.762650773777E+01
  3.807802583062E+01  3.853496214059E+01  3.899738168628E+01  3.946535026651E+01
  3.993893446971E+01  4.041820168335E+01  4.090322010355E+01  4.139405874479E+01
  4.189078744973E+01  4.239347689912E+01  4.290219862191E+01  4.341702500538E+01
  4.393802930544E+01  4.446528565711E+01
</grid-data>
</grid>
<valence-charge total-charge="13" is-unscreening-charge="yes"
 rescaled-to-z-pseudo="no">
<radfunc>
<data npts="458">
  1.961449042124E+00  1.962040640845E+00  1.963809219476E+00  1.966760144471E+00
  1.971090874156E+00  1.976617951280E+00  1.983664140180E+00  1.991735390849E+00
  2.000814160752E+00  2.011406136355E+00  2.023351159810E+00  2.036341846969E+00
  2.052051918156E+00  2.068471222510E+00  2.084885650801E+00  2.103807545770E+00
  2.125616534503E+00  2.146308741662E+00  2.169593440224E+00  2.195791101972E+00
  2.225260587464E+00  2.251460142471E+00  2.280236814368E+00  2.311838653330E+00
  2.346536357706E+00  2.384625054030E+00  2.426426144263E+00  2.460422397087E+00
  2.496861383237E+00  2.535911569883E+00  2.577751841044E+00  2.622571924239E+00
  2.670572790136E+00  2.721967013075E+00  2.776979077798E+00  2.835845614580E+00
  2.898815541320E+00  2.966150086878E+00  3.013599097813E+00  3.063193173963E+00
  3.115018561935E+00  3.169163704652E+00  3.225719127185E+00  3.284777292827E+00
  3.346432425427E+00  3.410780293567E+00  3.477917951705E+00  3.547943432911E+00
  3.620955387286E+00  3.697052659603E+00  3.776333799098E+00  3.858896493726E+00
  3.944836920573E+00  4.034249003414E+00  4.127223567822E+00  4.223847383513E+00
  4.324202083073E+00  4.428362945596E+00  4.536397533337E+00  4.648364169070E+00
  4.764310241705E+00  4.884270327664E+00  5.008264115836E+00  5.136294124534E+00
  5.268343199891E+00  5.404371786714E+00  5.544314964944E+00  5.615726519553E+00
  5.688079247775E+00  5.761356435743E+00  5.835539141254E+00  5.910606073586E+00
  5.986533469925E+00  6.063294968556E+00  6.140861478993E+00  6.219201049277E+00
  6.298278730707E+00  6.378056440295E+00  6.458492821316E+00  6.539543102339E+00
  6.621158955207E+00  6.703288352472E+00  6.785875424862E+00  6.868860319425E+00
  6.952179059051E+00  7.035763404162E+00  7.119540717419E+00  7.203433832389E+00
  7.287360927189E+00  7.371235404209E+00  7.454965777103E+00  7.538455566340E+00
  7.621603204663E+00  7.704301953950E+00  7.786439834992E+00  7.867899571864E+00
  7.948558552598E+00  8.028288807980E+00  8.106957010365E+00  8.184424494478E+00
  8.260547302231E+00  8.335176253652E+00  8.408157046063E+00  8.479330383668E+00
  8.548532139741E+00  8.615593553604E+00  8.680341464541E+00  8.742598584787E+00
  8.802183813626E+00  8.858912594556E+00  8.912597317346E+00  8.963047766649E+00
  9.010071618628E+00  9.053474986842E+00  9.093063018331E+00  9.128640540554E+00
  9.160012759443E+00  9.186986008445E+00  9.209368547976E+00  9.226971414197E+00
  9.239609315485E+00  9.247101574387E+00  9.249273112211E+00  9.245955472742E+00
  9.236987880868E+00  9.222218331171E+00  9.201504700786E+00  9.174715880069E+00
  9.141732913843E+00  9.102450145230E+00  9.056776353338E+00  9.004635875361E+00
  8.945969702977E+00  8.880736542359E+00  8.808913826550E+00  8.730498668565E+00
  8.645508743260E+00  8.553983085806E+00  8.455982794603E+00  8.351591626556E+00
  8.240916472961E+00  8.124087704709E+00  8.001259376200E+00  7.872609278226E+00
  7.738338831147E+00  7.598672810953E+00  7.453858902246E+00  7.304167073809E+00
  7.149888774174E+00  6.991335946542E+00  6.828839864382E+00  6.662749791107E+00
  6.493431469350E+00  6.321265447428E+00  6.146645252634E+00  5.969975422968E+00
  5.791669410711E+00  5.612147372957E+00  5.431833865657E+00  5.251155459011E+00
  5.070538293091E+00  4.890405593382E+00  4.711175166501E+00  4.533256896793E+00
  4.357050264640E+00  4.182941907446E+00  4.011303244165E+00  3.842488184174E+00
  3.676830941123E+00  3.514643972275E+00  3.356216063753E+00  3.201810581997E+00
  3.051663911696E+00  2.905984100326E+00  2.764949729254E+00  2.628709030945E+00
  2.497379271194E+00  2.371046414155E+00  2.249765086410E+00  2.133558854000E+00
  2.022420823431E+00  1.916314573965E+00  1.815175424365E+00  1.718912032039E+00
  1.627408316019E+00  1.540526658764E+00  1.458115159770E+00  1.380016994751E+00
  1.306071746837E+00  1.236116470306E+00  1.169986782014E+00  1.107517825568E+00
  1.048545157086E+00  9.929055492073E-01  9.404377152028E-01  8.909829555011E-01
  8.443857292504E-01  8.004941538993E-01  7.591604360622E-01  7.202412371731E-01
  6.835979776097E-01  6.490970831008E-01  6.166101773080E-01  5.860142245046E-01
  5.571916262655E-01  5.300302760311E-01  5.044235753273E-01  4.802704153132E-01
  4.574751271977E-01  4.359474049187E-01  4.156022033232E-01  3.963596149217E-01
  3.781447281300E-01  3.608874697448E-01  3.445224342408E-01  3.289887023184E-01
  3.142296509728E-01  3.001927572091E-01  2.868293973728E-01  2.740946438941E-01
  2.619470611222E-01  2.503485017566E-01  2.392639052310E-01  2.286610992593E-01
  2.185106056027E-01  2.087854509763E-01  1.994609838728E-01  1.905146979548E-01
  1.819260625376E-01  1.736763605755E-01  1.657485344562E-01  1.581270398113E-01
  1.507977074661E-01  1.437476135734E-01  1.369649579064E-01  1.304389502280E-01
  1.241597045997E-01  1.181181414498E-01  1.123058971819E-01  1.067152410739E-01
  1.013389991921E-01  9.617048502190E-02  9.120343650385E-02  8.643195914962E-02
  8.185047490437E-02  7.745367641810E-02  7.323648638613E-02  6.919402161972E-02
  6.532156151162E-02  6.161452056655E-02  5.806842467459E-02  5.467889081505E-02
  5.144160988954E-02  4.835233239628E-02  4.540685667181E-02  4.260101944255E-02
  3.993068844524E-02  3.739175689332E-02  3.498013958489E-02  3.269177045904E-02
  3.052260147345E-02  2.846860257312E-02  2.652576269806E-02  2.469009167301E-02
  2.295762288153E-02  2.132441662951E-02  1.978656411036E-02  1.834019188862E-02
  1.698146682056E-02  1.570660133012E-02  1.451185895662E-02  1.339356008812E-02
  1.234808779145E-02  1.137189364814E-02  1.046150350458E-02  9.613523046268E-03
  8.824643109359E-03  8.091644648322E-03  7.411403286651E-03  6.780893387212E-03
  6.197191590203E-03  5.657479778974E-03  5.159047446767E-03  4.699293450211E-03
  4.275727147685E-03  3.885968932098E-03  3.527750177857E-03  3.198912630646E-03
  2.897407275965E-03  2.621292728148E-03  2.368733185802E-03  2.137996002343E-03
  1.927448921764E-03  1.735557029905E-03  1.560879470704E-03  1.402065975169E-03
  1.257853248345E-03  1.127061256621E-03  1.008589454434E-03  9.014129840026E-04
  8.045788873626E-04  7.172023339108E-04  6.384629334800E-04  5.676011193934E-04
  5.039145733465E-04  4.467548261160E-04  3.955239773207E-04  3.496714874276E-04
  3.086911211945E-04  2.721180354303E-04  2.395259953021E-04  2.105247244652E-04
  1.847573889081E-04  1.618982119419E-04  1.416502174494E-04  1.237430979555E-04
  1.079312037078E-04  9.399164871390E-05  8.172252953534E-05  7.094125257539E-05
  6.148296558229E-05  5.319908911702E-05  4.595594378326E-05  3.963346908041E-05
  3.412402980879E-05  2.933130602643E-05  2.516926262519E-05  2.156119466030E-05
  1.843884463153E-05  1.574158797723E-05  1.341568310640E-05  1.141358235929E-05
  9.693300357249E-06  8.217836276803E-06  6.954646664778E-06  5.875165499169E-06
  4.954368296755E-06  4.170377171797E-06  3.504103861053E-06  2.938927847819E-06
  2.460406841146E-06  2.056016994715E-06  1.714920382000E-06  1.427757379140E-06
  1.186461743182E-06  9.840963098721E-07  8.147073708578E-07  6.731959239361E-07
  5.552041209489E-07  4.570153652010E-07  3.754666331731E-07  3.078717132096E-07
  2.519541663005E-07  2.057889207016E-07  1.677515126714E-07  1.364740799207E-07
  1.108073023938E-07  8.978756676040E-08  7.260870657882E-08  5.859773965485E-08
  4.719408785606E-08  3.793182279888E-08  3.042453367017E-08  2.435246127213E-08
  1.945158549622E-08  1.550439215456E-08  1.233207974442E-08  9.787997608731E-09
  7.752134393147E-09  6.126499987075E-09  4.831265560488E-09  3.801545142949E-09
  2.984718693873E-09  2.338211024406E-09  1.827653475419E-09  1.425366139485E-09
  1.109107827174E-09  8.610490923835E-10  6.669306049283E-10  5.153751328562E-10
  3.973264993561E-10  3.055932235020E-10  2.344782417429E-10  1.794792277758E-10
  1.370466614034E-10  1.043890117388E-10  7.931625751273E-11  6.011452029414E-11
  4.544588114369E-11  3.426852736855E-11  2.577326788113E-11  1.933319257500E-11
  1.446385823839E-11  1.079188222516E-11  8.030233551246E-12  5.958844635119E-12
  4.409438490621E-12  3.253686673441E-12  2.393991768213E-12  1.756332262936E-12
  1.284723590911E-12  9.369421462262E-13  6.812335046956E-13  4.937854519474E-13
  3.567936460438E-13  2.569851448137E-13  1.844949999692E-13  1.320126169090E-13
  7.811344439382E-15  5.230713152065E-15  3.486821489192E-15  2.313708651542E-15
  1.528177986548E-15  1.004619014684E-15  6.573045112215E-16  4.280010923357E-16
  2.773391416372E-16  1.788299097032E-16  1.147377199506E-16  7.324591314312E-17
  4.652061476779E-17  2.939447996128E-17  1.847640639550E-17  1.155243131743E-17
  7.184654588902E-18  4.444133676785E-18  2.733939060946E-18  1.672562963475E-18
  1.017511060985E-18  6.155021273012E-19  3.701895189187E-19  2.213567892063E-19
  1.315847039407E-19  7.775549663952E-20  4.567082427186E-20  2.666227540229E-20
  1.546943143098E-20  8.919449721537E-21  5.110409914893E-21  2.909339344515E-21
  1.645586037885E-21  9.246993996512E-22  5.161787383099E-22  2.862098460876E-22
  1.576227469851E-22  8.621197208796E-23  4.682682153539E-23  2.525595254511E-23
  1.352501727473E-23  7.190832508006E-24  3.795338241591E-24  0.000000000000E+00
  0.000000000000E+00  0.000000000000E+00  0.000000000000E+00  0.000000000000E+00
  0.000000000000E+00  0.000000000000E+00
</data>
</radfunc>
</valence-charge>
<pseudocore-charge matching-radius="0.989549669260"
 number-of-continuous-derivatives="4">
<annotation model-charge-form="Teter function with specified parameters" />
<radfunc>
<data npts="291">
  4.258814192246E+01  4.258627174658E+01  4.258068095398E+01  4.257135289629E+01
  4.255766397330E+01  4.254019488902E+01  4.251792663221E+01  4.249242184382E+01
  4.246373714209E+01  4.243027646315E+01  4.239254789759E+01  4.235152429880E+01
  4.230192371264E+01  4.225009617448E+01  4.219829639799E+01  4.213859881692E+01
  4.206981237508E+01  4.200456753124E+01  4.193117022092E+01  4.184861795708E+01
  4.175578933161E+01  4.167329004404E+01  4.158270640300E+01  4.148326558889E+01
  4.137412497595E+01  4.125436669153E+01  4.112299194216E+01  4.101618796025E+01
  4.090174902050E+01  4.077915235745E+01  4.064784295178E+01  4.050723209688E+01
  4.035669599613E+01  4.019557441173E+01  4.002316938981E+01  3.983874409096E+01
  3.964152176017E+01  3.943068487576E+01  3.928214087259E+01  3.912690028147E+01
  3.896469004529E+01  3.879522886777E+01  3.861822727410E+01  3.843338771380E+01
  3.824040471097E+01  3.803896506726E+01  3.782874812325E+01  3.760942608476E+01
  3.738066442042E+01  3.714212233795E+01  3.689345334640E+01  3.663430591266E+01
  3.636432422052E+01  3.608314904124E+01  3.579041872490E+01  3.548577032222E+01
  3.516884084691E+01  3.483926868864E+01  3.449669518729E+01  3.414076637893E+01
  3.377113492416E+01  3.338746222903E+01  3.298942076893E+01  3.257669662470E+01
  3.214899224004E+01  3.170602940793E+01  3.124755249273E+01  3.101242338683E+01
  3.077333189277E+01  3.053025398616E+01  3.028316774637E+01  3.003205348561E+01
  2.977689388181E+01  2.951767411521E+01  2.925438200855E+01  2.898700817075E+01
  2.871554614409E+01  2.843999255467E+01  2.816034726603E+01  2.787661353579E+01
  2.758879817507E+01  2.729691171051E+01  2.700096854865E+01  2.670098714240E+01
  2.639699015925E+01  2.608900465098E+01  2.577706222444E+01  2.546119921301E+01
  2.514145684830E+01  2.481788143170E+01  2.449052450516E+01  2.415944302069E+01
  2.382469950806E+01  2.348636223993E+01  2.314450539389E+01  2.279920921057E+01
  2.245056014708E+01  2.209865102508E+01  2.174358117242E+01  2.138545655760E+01
  2.102438991613E+01  2.066050086762E+01  2.029391602270E+01  1.992476907869E+01
  1.955320090281E+01  1.917935960182E+01  1.880340057684E+01  1.842548656220E+01
  1.804578764693E+01  1.766448127767E+01  1.728175224159E+01  1.689779262814E+01
  1.651280176805E+01  1.612698614845E+01  1.574055930249E+01  1.535374167246E+01
  1.496676044465E+01  1.457984935511E+01  1.419324846462E+01  1.380720390206E+01
  1.342196757469E+01  1.303779684452E+01  1.265495416974E+01  1.227370671027E+01
  1.189432589686E+01  1.151708696290E+01  1.114226843885E+01  1.077015160871E+01
  1.040101992866E+01  1.003515840803E+01  9.672852952870E+00  9.314389672949E+00
  8.960054152956E+00  8.610130689218E+00  8.264901493429E+00  7.924645865276E+00
  7.589639336146E+00  7.260152786518E+00  6.936451539961E+00  6.618794437087E+00
  6.307432893174E+00  6.002609943600E+00  5.704559281608E+00  5.413504293331E+00
  5.129657095400E+00  4.853217580850E+00  4.584372479375E+00  4.323294438370E+00
  4.070141131479E+00  3.825054401665E+00  3.588159446067E+00  3.359564050073E+00
  3.139357878213E+00  2.927611829517E+00  2.724377465005E+00  2.529686514884E+00
  2.343550472905E+00  2.165960285022E+00  1.996886139205E+00  1.836277362778E+00
  1.684062433089E+00  1.540149106669E+00  1.404424671235E+00  1.276756324008E+00
  1.156991678796E+00  1.044959403187E+00  9.404699859601E-01  8.433166335161E-01
  7.532762927123E-01  6.701107960253E-01  5.935681234140E-01  5.233837736886E-01
  4.592822365997E-01  4.009785552709E-01  3.481799670462E-01  3.005876093270E-01
  2.578982755694E-01  2.198062053307E-01  1.860048911266E-01  1.561888839214E-01
  1.300555783548E-01  1.073069583420E-01  8.765128349798E-02  7.080469695688E-02
  5.649273560651E-02  4.445172455200E-02  3.443003877083E-02  2.618921642803E-02
  1.950491017898E-02  1.416766498407E-02  9.983513469507E-03  6.774382659307E-03
  4.378308928598E-03  2.649461235181E-03  1.457976010010E-03  6.896104557279E-04
  2.452243359986E-04  4.010355196210E-05  3.141807154906E-06  7.589936967561E-05
  2.115602631014E-04  3.738110741299E-04  5.356658822197E-04  6.782625339335E-04
  7.896555570571E-04  8.636304103235E-04  8.985624884738E-04  8.963423676104E-04
  8.613862252308E-04  7.997472709375E-04  7.183404698958E-04  6.242889463433E-04
  5.243963527035E-04  4.247453296930E-04  3.304181218638E-04  2.453316112959E-04
  1.721756445684E-04  1.124406966316E-04  6.651876075021E-05  3.385996879372E-05
  1.316688822017E-05  2.608728288635E-06  3.879205242657E-08  3.200361940537E-06
  9.908692220598E-06  1.819975065225E-05  2.643962337558E-05  3.339187080608E-05
  3.824338970123E-05  4.059229546075E-05  4.040380738753E-05  3.794195047122E-05
  3.368597878850E-05  2.824073159472E-05  2.224966776414E-05  1.631816240946E-05
  1.095292232545E-05  6.521261465403E-06  3.231682401046E-06  1.134955931348E-06
  1.428922199091E-07  6.043792655631E-08  6.257520120363E-07  1.552583033480E-06
  2.569596401855E-06  3.452212415428E-06  4.043880721383E-06  4.265349682698E-06
  4.112176891832E-06  3.642254396306E-06  2.956298889801E-06  2.174943396439E-06
  1.416192769417E-06  7.765805229104E-07  3.184780391919E-07  6.481434462645E-08
  0.000000000000E+00  0.000000000000E+00  0.000000000000E+00  0.000000000000E+00
  0.000000000000E+00  0.000000000000E+00  0.000000000000E+00  0.000000000000E+00
  0.000000000000E+00  0.000000000000E+00  0.000000000000E+00  0.000000000000E+00
  0.000000000000E+00  0.000000000000E+00  0.000000000000E+00  0.000000000000E+00
  0.000000000000E+00  0.000000000000E+00  0.000000000000E+00  0.000000000000E+00
  0.000000000000E+00  0.000000000000E+00  0.000000000000E+00  0.000000000000E+00
  0.000000000000E+00  0.000000000000E+00  0.000000000000E+00  0.000000000000E+00
  0.000000000000E+00  0.000000000000E+00  0.000000000000E+00  0.000000000000E+00
  0.000000000000E+00  0.000000000000E+00  0.000000000000E+00
</data>
</radfunc>
</pseudocore-charge>
<semilocal-potentials set="scalar_relativistic">
<slps n="5" l="s" rc="1.71293614326" eref="-2.68386552087">
<radfunc>
<data npts="291">
 -6.238856276395E+00 -6.239720269373E+00 -6.242302546333E+00 -6.246609142821E+00
 -6.252924896186E+00 -6.260977522669E+00 -6.271230697679E+00 -6.282958014836E+00
 -6.296127003596E+00 -6.311461279821E+00 -6.328716209116E+00 -6.347435850071E+00
 -6.370010688338E+00 -6.393530790642E+00 -6.416968817451E+00 -6.443894583385E+00
 -6.474806316940E+00 -6.504014787002E+00 -6.536743563889E+00 -6.573391878653E+00
 -6.614397679139E+00 -6.650659966014E+00 -6.690281112324E+00 -6.733543361228E+00
 -6.780746827286E+00 -6.832209401784E+00 -6.888266341271E+00 -6.933535150762E+00
 -6.981740024385E+00 -7.033039550535E+00 -7.087596231529E+00 -7.145575832271E+00
 -7.207146588820E+00 -7.272478262057E+00 -7.341741021392E+00 -7.415104143450E+00
 -7.492734511037E+00 -7.574794898456E+00 -7.632040653528E+00 -7.691369632722E+00
 -7.752824403867E+00 -7.816445264673E+00 -7.882269884841E+00 -7.950332925901E+00
 -8.020665638852E+00 -8.093295439913E+00 -8.168245464884E+00 -8.245534102842E+00
 -8.325174510138E+00 -8.407174105946E+00 -8.491534050829E+00 -8.578248710130E+00
 -8.667305104233E+00 -8.758682348046E+00 -8.852351082340E+00 -8.948272899860E+00
 -9.046399769386E+00 -9.146673461173E+00 -9.249024977439E+00 -9.353373991776E+00
 -9.459628301507E+00 -9.567683297203E+00 -9.677421453637E+00 -9.788711846538E+00
 -9.901409699543E+00 -1.001535596573E+01 -1.013037694804E+01 -1.018823208780E+01
 -1.024628396296E+01 -1.030450659903E+01 -1.036287305149E+01 -1.042135539968E+01
 -1.047992474155E+01 -1.053855118925E+01 -1.059720386584E+01 -1.065585090284E+01
 -1.071445943886E+01 -1.077299561925E+01 -1.083142459686E+01 -1.088971053385E+01
 -1.094781660463E+01 -1.100570500002E+01 -1.106333693252E+01 -1.112067264284E+01
 -1.117767140770E+01 -1.123429154883E+01 -1.129049044343E+01 -1.134622453579E+01
 -1.140144935049E+01 -1.145611950690E+01 -1.151018873515E+01 -1.156360989373E+01
 -1.161633498844E+01 -1.166831519316E+01 -1.171950087207E+01 -1.176984160367E+01
 -1.181928620659E+01 -1.186778276703E+01 -1.191527866827E+01 -1.196172062195E+01
 -1.200705470137E+01 -1.205122637682E+01 -1.209418055302E+01 -1.213586160872E+01
 -1.217621343842E+01 -1.221517949652E+01 -1.225270284358E+01 -1.228872619516E+01
 -1.232319197287E+01 -1.235604235799E+01 -1.238721934746E+01 -1.241666481239E+01
 -1.244432055904E+01 -1.247012839213E+01 -1.249403018074E+01 -1.251596792637E+01
 -1.253588383334E+01 -1.255372038132E+01 -1.256942039982E+01 -1.258292714452E+01
 -1.259418437516E+01 -1.260313643478E+01 -1.260972833000E+01 -1.261390581201E+01
 -1.261561545786E+01 -1.261480475161E+01 -1.261142216502E+01 -1.260541723703E+01
 -1.259674065170E+01 -1.258534431401E+01 -1.257118142282E+01 -1.255420654059E+01
 -1.253437565915E+01 -1.251164626110E+01 -1.248597737626E+01 -1.245732963288E+01
 -1.242566530333E+01 -1.239094834408E+01 -1.235314443022E+01 -1.231222098480E+01
 -1.226814720371E+01 -1.222089407723E+01 -1.217043440966E+01 -1.211674283935E+01
 -1.205979586165E+01 -1.199957185843E+01 -1.193605113836E+01 -1.186921599328E+01