<?xml version="1.0" encoding="UTF-8" ?>
<psml version="1.1" energy_unit="hartree" length_unit="bohr"
 uuid="331721a0-1d60-11e8-5a26-f5c876f91408"
 xmlns="http://esl.cecam.org/PSML/ns/1.1">
<provenance creator="ONCVPSP-3.3.0+psml-3.3.0-73 (scalar-relativistic)"
 date="2018-03-01">
<annotation action="semilocal-pseudopotential-generation"
 action-cont="projectors-generation" />
<input-file name="oncvpsp-input">
<![CDATA[# atsym z nc nv iexc psfile
Ru 44 6 4 -116133 upf
# n l f
1 0 2.0
2 0 2.0
2 1 6.0
3 0 2.0
3 1 6.0
3 2 10.0
4 0 2.0
4 1 6.0
4 2 7.0
5 0 1.0
# lmax
2
# l rc ep ncon nbas qcut
0 1.35 0.0 4 8 8.7
1 1.4 0.0 4 8 9.0
2 1.3 0.0 4 7 9.0
# lloc lpopt rc5 dvloc0
4 5 1.3 0.0
# l nproj debl
0 2 1.0
1 2 2.5
2 2 1.5
# icmod fcfact
3 7.0 1.24
# epsh1 epsh2 depsh
-12.0 12.0 0.02
# rlmax drl
6.0 0.01
 0
]]>
</input-file>
</provenance>
<pseudo-atom-spec atomic-label="Ru" atomic-number="44" z-pseudo="16"
 flavor="Hamann&apos;s oncvpsp" relativity="scalar" spin-dft="no"
 core-corrections="yes">
<annotation pseudo-energy="-94.9117518305" />
<exchange-correlation>
<annotation oncvpsp-xc-code="-116133" oncvpsp-xc-type="libxc-interface" />
<libxc-info number-of-functionals="2">
<functional name="Perdew, Burke &amp; Ernzerhof SOL (GGA)" type="exchange"
 id="116" />
<functional name="Perdew, Burke &amp; Ernzerhof SOL (GGA)" type="correlation"
 id="133" />
</libxc-info>
</exchange-correlation>
<valence-configuration total-valence-charge="16">
<shell n="4" l="s" occupation="2" />
<shell n="4" l="p" occupation="6" />
<shell n="4" l="d" occupation="7" />
<shell n="5" l="s" occupation="1" />
</valence-configuration>
</pseudo-atom-spec>
<grid npts="457">
<annotation type="sampled from oncvpsp log grid"
 recipe="r(i:1..N) = r1*exp(a*(i-1)) + r=0; resampled"
 recipe-cont="r1: scale; a: step" scale="0.113636363636E-04"
 step="0.119285708653E-01" delta="0.500000000000E-02" rmax="44.1701864667" />
<grid-data>
  0.000000000000E+00  5.043815794335E-03  1.007462622473E-02  1.511354584145E-02
  2.012327525563E-02  2.524226985489E-02  3.055037921081E-02  3.567494135815E-02
  4.067699906245E-02  4.583044039319E-02  5.102448653004E-02  5.613358028248E-02
  6.175424878552E-02  6.713213057154E-02  7.297834632768E-02  7.839296543135E-02
  8.420932150924E-02  8.938460611162E-02  9.487795016675E-02  1.007089007765E-01
  1.068982063566E-01  1.121224214091E-01  1.176019487239E-01  1.233492656496E-01
  1.293774593142E-01  1.357002564259E-01  1.423320545300E-01  1.475177418904E-01
  1.528923631736E-01  1.584628019468E-01  1.642361925710E-01  1.702199293389E-01
  1.764216759446E-01  1.828493752993E-01  1.895112597039E-01  1.964158613929E-01
  2.035720234618E-01  2.109889111930E-01  2.160830274648E-01  2.213001360800E-01
  2.266432065655E-01  2.321152801448E-01  2.377194714686E-01  2.434589703877E-01
  2.493370437688E-01  2.553570373535E-01  2.615223776634E-01  2.678365739497E-01
  2.743032201911E-01  2.809259971394E-01  2.877086744144E-01  2.946551126494E-01
  3.017692656892E-01  3.090551828400E-01  3.165170111745E-01  3.241589978923E-01
  3.319854927375E-01  3.400009504741E-01  3.482099334224E-01  3.566171140549E-01
  3.652272776566E-01  3.740453250484E-01  3.830762753764E-01  3.923252689690E-01
  4.017975702630E-01  4.114985707995E-01  4.214337922928E-01  4.264909978004E-01
  4.316088897740E-01  4.367881964512E-01  4.420296548087E-01  4.473340106664E-01
  4.527020187944E-01  4.581344430199E-01  4.636320563361E-01  4.691956410122E-01
  4.748259887043E-01  4.805239005688E-01  4.862901873756E-01  4.921256696241E-01
  4.980311776596E-01  5.040075517915E-01  5.100556424130E-01  5.161763101220E-01
  5.223704258434E-01  5.286388709535E-01  5.349825374050E-01  5.414023278538E-01
  5.478991557881E-01  5.544739456575E-01  5.611276330054E-01  5.678611646015E-01
  5.746754985767E-01  5.815716045596E-01  5.885504638144E-01  5.956130693801E-01
  6.027604262127E-01  6.099935513272E-01  6.173134739432E-01  6.247212356305E-01
  6.322178904580E-01  6.398045051435E-01  6.474821592053E-01  6.552519451157E-01
  6.631149684571E-01  6.710723480786E-01  6.791252162555E-01  6.872747188506E-01
  6.955220154768E-01  7.038682796625E-01  7.123146990185E-01  7.208624754067E-01
  7.295128251116E-01  7.382669790129E-01  7.471261827611E-01  7.560916969542E-01
  7.651647973177E-01  7.743467748855E-01  7.836389361841E-01  7.930426034183E-01
  8.025591146593E-01  8.121898240353E-01  8.219361019237E-01  8.317993351468E-01
  8.417809271685E-01  8.518822982945E-01  8.621048858741E-01  8.724501445046E-01
  8.829195462386E-01  8.935145807935E-01  9.042367557630E-01  9.150875968322E-01
  9.260686479942E-01  9.371814717701E-01  9.484276494313E-01  9.598087812245E-01
  9.713264865992E-01  9.829824044384E-01  9.947781932916E-01  1.006715531611E+00
  1.018796117990E+00  1.031021671406E+00  1.043393931463E+00  1.055914658641E+00
  1.068585634544E+00  1.081408662159E+00  1.094385566105E+00  1.107518192898E+00
  1.120808411213E+00  1.134258112148E+00  1.147869209493E+00  1.161643640007E+00
  1.175583363687E+00  1.189690364052E+00  1.203966648420E+00  1.218414248201E+00
  1.233035219180E+00  1.247831641810E+00  1.262805621511E+00  1.277959288970E+00
  1.293294800437E+00  1.308814338043E+00  1.324520110099E+00  1.340414351420E+00
  1.356499323637E+00  1.372777315521E+00  1.389250643307E+00  1.405921651027E+00
  1.422792710839E+00  1.439866223369E+00  1.457144618050E+00  1.474630353466E+00
  1.492325917708E+00  1.510233828720E+00  1.528356634665E+00  1.546696914281E+00
  1.565257277252E+00  1.584040364579E+00  1.603048848954E+00  1.622285435142E+00
  1.641752860363E+00  1.661453894688E+00  1.681391341424E+00  1.701568037521E+00
  1.721986853971E+00  1.742650696219E+00  1.763562504574E+00  1.784725254629E+00
  1.806141957684E+00  1.827815661176E+00  1.849749449110E+00  1.871946442500E+00
  1.894409799810E+00  1.917142717408E+00  1.940148430016E+00  1.963430211177E+00
  1.986991373711E+00  2.010835270195E+00  2.034965293438E+00  2.059384876959E+00
  2.084097495482E+00  2.109106665428E+00  2.134415945413E+00  2.160028936758E+00
  2.185949283999E+00  2.212180675407E+00  2.238726843512E+00  2.265591565634E+00
  2.292778664422E+00  2.320292008395E+00  2.348135512496E+00  2.376313138646E+00
  2.404828896309E+00  2.433686843065E+00  2.462891085182E+00  2.492445778204E+00
  2.522355127543E+00  2.552623389073E+00  2.583254869742E+00  2.614253928179E+00
  2.645624975317E+00  2.677372475021E+00  2.709500944721E+00  2.742014956058E+00
  2.774919135530E+00  2.808218165157E+00  2.841916783139E+00  2.876019784536E+00
  2.910532021951E+00  2.945458406214E+00  2.980803907089E+00  3.016573553974E+00
  3.052772436622E+00  3.089405705861E+00  3.126478574331E+00  3.163996317223E+00
  3.201964273030E+00  3.240387844306E+00  3.279272498438E+00  3.318623768419E+00
  3.358447253640E+00  3.398748620684E+00  3.439533604132E+00  3.480808007382E+00
  3.522577703470E+00  3.564848635912E+00  3.607626819543E+00  3.650918341377E+00
  3.694729361474E+00  3.739066113812E+00  3.783934907177E+00  3.829342126064E+00
  3.875294231576E+00  3.921797762355E+00  3.968859335503E+00  4.016485647530E+00
  4.064683475300E+00  4.113459677003E+00  4.162821193128E+00  4.212775047445E+00
  4.263328348014E+00  4.314488288191E+00  4.366262147649E+00  4.418657293421E+00
  4.471681180942E+00  4.525341355113E+00  4.579645451374E+00  4.634601196791E+00
  4.690216411152E+00  4.746499008086E+00  4.803456996183E+00  4.861098480137E+00
  4.919431661899E+00  4.978464841842E+00  5.038206419944E+00  5.098664896983E+00
  5.159848875747E+00  5.221767062256E+00  5.284428267003E+00  5.347841406207E+00
  5.412015503082E+00  5.476959689119E+00  5.542683205388E+00  5.609195403853E+00
  5.676505748699E+00  5.744623817683E+00  5.813559303495E+00  5.883322015137E+00
  5.953921879319E+00  6.025368941871E+00  6.097673369173E+00  6.170845449603E+00
  6.244895594999E+00  6.319834342139E+00  6.395672354244E+00  6.472420422495E+00
  6.550089467565E+00  6.628690541176E+00  6.708234827670E+00  6.788733645602E+00
  6.870198449349E+00  6.952640830742E+00  7.036072520710E+00  7.120505390959E+00
  7.205951455650E+00  7.292422873118E+00  7.379931947596E+00  7.468491130967E+00
  7.558113024538E+00  7.648810380833E+00  7.740596105403E+00  7.833483258668E+00
  7.927485057772E+00  8.022614878465E+00  8.118886257007E+00  8.216312892091E+00
  8.314908646796E+00  8.414687550557E+00  8.515663801164E+00  8.617851766778E+00
  8.721265987979E+00  8.825921179835E+00  8.931832233993E+00  9.039014220801E+00
  9.147482391451E+00  9.257252180148E+00  9.368339206310E+00  9.480759276786E+00
  9.594528388107E+00  9.709662728764E+00  9.826178681509E+00  9.944092825688E+00
  1.006342193960E+01  1.018418300287E+01  1.030639319891E+01  1.043006991729E+01
  1.055523075630E+01  1.068189352538E+01  1.081007624768E+01  1.093979716265E+01
  1.107107472860E+01  1.120392762535E+01  1.133837475685E+01  1.147443525393E+01
  1.161212847698E+01  1.175147401870E+01  1.189249170693E+01  1.203520160741E+01
  1.217962402670E+01  1.232577951502E+01  1.247368886920E+01  1.262337313563E+01
  1.277485361326E+01  1.292815185662E+01  1.308328967890E+01  1.324028915504E+01
  1.339917262491E+01  1.355996269640E+01  1.372268224876E+01  1.388735443575E+01
  1.405400268898E+01  1.422265072124E+01  1.439332252990E+01  1.456604240026E+01
  1.474083490906E+01  1.491772492797E+01  1.509673762710E+01  1.527789847863E+01
  1.546123326037E+01  1.564676805950E+01  1.583452927621E+01  1.602454362753E+01
  1.621683815106E+01  1.641144020887E+01  1.660837749138E+01  1.680767802127E+01
  1.700937015753E+01  1.721348259942E+01  1.742004439061E+01  1.762908492330E+01
  1.784063394238E+01  1.805472154969E+01  1.827137820828E+01  1.849063474678E+01
  1.871252236374E+01  1.893707263211E+01  1.916431750369E+01  1.939428931374E+01
  1.962702078550E+01  1.986254503493E+01  2.010089557535E+01  2.034210632225E+01
  2.058621159812E+01  2.083324613730E+01  2.108324509094E+01  2.133624403203E+01
  2.159227896042E+01  2.185138630794E+01  2.211360294364E+01  2.237896617896E+01
  2.264751377311E+01  2.291928393839E+01  2.319431534565E+01  2.347264712980E+01
  2.375431889535E+01  2.403937072210E+01  2.432784317076E+01  2.461977728881E+01
  2.491521461628E+01  2.521419719167E+01  2.551676755797E+01  2.582296876867E+01
  2.613284439389E+01  2.644643852662E+01  2.676379578894E+01  2.708496133841E+01
  2.740998087447E+01  2.773890064496E+01  2.807176745270E+01  2.840862866213E+01
  2.874953220608E+01  2.909452659255E+01  2.944366091166E+01  2.979698484260E+01
  3.015454866071E+01  3.051640324464E+01  3.088260008358E+01  3.125319128458E+01
  3.162822958000E+01  3.200776833496E+01  3.239186155498E+01  3.278056389364E+01
  3.317393066036E+01  3.357201782828E+01  3.397488204222E+01  3.438258062673E+01
  3.479517159425E+01  3.521271365338E+01  3.563526621722E+01  3.606288941183E+01
  3.649564408477E+01  3.693359181379E+01  3.737679491555E+01  3.782531645454E+01
  3.827922025199E+01  3.873857089502E+01  3.920343374576E+01  3.967387495071E+01
  4.014996145012E+01  4.063176098752E+01  4.111934211937E+01  4.161277422480E+01
  4.211212751550E+01  4.261747304568E+01  4.312888272223E+01  4.364642931490E+01
  4.417018646668E+01
</grid-data>
</grid>
<valence-charge total-charge="16" is-unscreening-charge="yes"
 rescaled-to-z-pseudo="no">
<radfunc>
<data npts="457">
  1.168648001752E-01  1.177471088458E-01  1.203859374176E-01  1.247927847124E-01
  1.309289008031E-01  1.390133261087E-01  1.493432878493E-01  1.612083803502E-01
  1.745957566870E-01  1.902694381189E-01  2.080161091111E-01  2.274011990028E-01
  2.509619047876E-01  2.757233170265E-01  3.051355869120E-01  3.347271521697E-01
  3.690707500282E-01  4.018887949736E-01  4.390880885250E-01  4.812797888128E-01
  5.291658684414E-01  5.721131639920E-01  6.196877237098E-01  6.724142563113E-01
  7.308805685294E-01  7.957453680167E-01  8.677469352767E-01  9.269257249994E-01
  9.909676816217E-01  1.060292343926E+00  1.135356279697E+00  1.216656058514E+00
  1.304731337573E+00  1.400168024879E+00  1.503601470074E+00  1.615719615792E+00
  1.737266021123E+00  1.869042642938E+00  1.963000664894E+00  2.062158639758E+00
  2.166800146482E+00  2.277221381112E+00  2.393731129026E+00  2.516650614695E+00
  2.646313206366E+00  2.783063950336E+00  2.927258906567E+00  3.079264254316E+00
  3.239455133242E+00  3.408214182159E+00  3.585929734245E+00  3.772993624258E+00
  3.969798560104E+00  4.176735008202E+00  4.394187539571E+00  4.622530581584E+00
  4.862123519183E+00  5.113305089164E+00  5.376387012339E+00  5.651646811159E+00
  5.939319765258E+00  6.239589964666E+00  6.552580430642E+00  6.878342287763E+00
  7.216842988480E+00  7.567953613506E+00  7.931435298563E+00  8.117707060009E+00
  8.306924870763E+00  8.499021444277E+00  8.693919816671E+00  8.891532852703E+00
  9.091762749177E+00  9.294500538075E+00  9.499625591946E+00  9.707005134321E+00
  9.916493758223E+00  1.012793295611E+01  1.034115066485E+01  1.055596082977E+01
  1.077216299173E+01  1.098954190208E+01  1.120786717004E+01  1.142689294772E+01
  1.164635765814E+01  1.186598377188E+01  1.208547763829E+01  1.230452937732E+01
  1.252281283834E+01  1.273998563242E+01  1.295568924459E+01  1.316954923289E+01
  1.338117552070E+01  1.359016278922E+01  1.379609097637E+01  1.399852588864E+01
  1.419701993178E+01  1.439111296613E+01  1.458033329161E+01  1.476419876711E+01
  1.494221806816E+01  1.511389208583E+01  1.527871546920E+01  1.543617831225E+01
  1.558576798518E+01  1.572697110863E+01  1.585927566777E+01  1.598217326203E+01
  1.609516148390E+01  1.619774641908E+01  1.628944525802E+01  1.636978900699E+01
  1.643832528485E+01  1.649462118965E+01  1.653826621720E+01  1.656887521154E+01
  1.658609132565E+01  1.658958896858E+01  1.657907671349E+01  1.655430013997E+01
  1.651504458200E+01  1.646113775264E+01  1.639245221505E+01  1.630890766977E+01
  1.621047302744E+01  1.609716823712E+01  1.596906584081E+01  1.582629222620E+01
  1.566902855130E+01  1.549751131706E+01  1.531203256631E+01  1.511293969097E+01
  1.490063483264E+01  1.467557386587E+01  1.443826495749E+01  1.418926670008E+01
  1.392918582245E+01  1.365867448483E+01  1.337842717161E+01  1.308917719951E+01
  1.279169286380E+01  1.248677325030E+01  1.217524374510E+01  1.185795127824E+01
  1.153575934152E+01  1.120954282368E+01  1.088018270937E+01  1.054856068997E+01
  1.021555373672E+01  9.882028686777E+00  9.548836893751E+00  9.216808993402E+00
  8.886749834457E+00  8.559433622533E+00  8.235599322888E+00  7.915946364720E+00
  7.601130686259E+00  7.291761155938E+00  6.988396400685E+00  6.691542067849E+00
  6.401648542740E+00  6.119109139255E+00  5.844258646581E+00  5.577371834451E+00
  5.318662382426E+00  5.068284296184E+00  4.826336123804E+00  4.592865799682E+00
  4.367873900722E+00  4.151323402324E+00  3.943149519602E+00  3.743262570002E+00
  3.551550322433E+00  3.367880287308E+00  3.192101936729E+00  3.024048845667E+00
  2.863540746408E+00  2.710385489846E+00  2.564380908506E+00  2.425316577367E+00
  2.292975469684E+00  2.167135506081E+00  2.047570996130E+00  1.934053972532E+00
  1.826355418817E+00  1.724246392198E+00  1.627499043851E+00  1.535887539447E+00
  1.449188883268E+00  1.367183649591E+00  1.289656625429E+00  1.216397368933E+00
  1.147200688031E+00  1.081867043771E+00  1.020202883576E+00  9.620209088001E-01
  9.071402816059E-01  8.553867759295E-01  8.065928772204E-01  7.605978355692E-01
  7.172476766894E-01  6.763951750672E-01  6.378997934203E-01  6.016275924106E-01
  5.674511143602E-01  5.352492445012E-01  5.049070530774E-01  4.763156213897E-01
  4.493718546604E-01  4.239782843631E-01  4.000428624524E-01  3.774787497113E-01
  3.562041002254E-01  3.361418437944E-01  3.172194678990E-01  2.993688006553E-01
  2.825257960199E-01  2.666303223393E-01  2.516259551901E-01  2.374597753082E-01
  2.240821722763E-01  2.114466545162E-01  1.995096660192E-01  1.882304101492E-01
  1.775706807569E-01  1.674947007659E-01  1.579689683121E-01  1.489621104577E-01
  1.404447444391E-01  1.323893463616E-01  1.247701272087E-01  1.175629159994E-01
  1.107450498932E-01  1.042952710223E-01  9.819362980625E-02  9.242139449184E-02
  8.696096664892E-02  8.179580234501E-02  7.691033871822E-02  7.228992566613E-02
  6.792076236971E-02  6.378983837486E-02  5.988487895950E-02  5.619429452090E-02
  5.270713372661E-02  4.941304018133E-02  4.630221237259E-02  4.336536666899E-02
  4.059370315600E-02  3.797887410617E-02  3.551295489244E-02  3.318841716469E-02
  3.099810412184E-02  2.893520772253E-02  2.699324768869E-02  2.516605216637E-02
  2.344773991800E-02  2.183270392915E-02  2.031559632109E-02  1.889131446656E-02
  1.755498822100E-02  1.630196816526E-02  1.512781479260E-02  1.402828855209E-02
  1.299934067541E-02  1.203710471557E-02  1.113788873005E-02  1.029816804350E-02
  9.514578529045E-03  8.783910350025E-03  8.103102107863E-03  7.469235345107E-03
  6.879529356633E-03  6.331336265921E-03  5.822136327450E-03  5.349533420502E-03
  4.911250703887E-03  4.505126405371E-03  4.129109723692E-03  3.781256825023E-03
  3.459726919480E-03  3.162778406725E-03  2.888765082870E-03  2.636132403666E-03
  2.403413801407E-03  2.189227055043E-03  1.992270714712E-03  1.811320583219E-03
  1.645226258067E-03  1.492907738329E-03  1.353352101105E-03  1.225610252525E-03
  1.108793758224E-03  1.002071758052E-03  9.046679694210E-04  8.158577832471E-04
  7.349654558958E-04  6.613613999175E-04  5.944595757201E-04  5.337149856424E-04
  4.786212712293E-04  4.287084138497E-04  3.835405381826E-04  3.427138175158E-04
  3.058544792828E-04  2.726169087996E-04  2.426818487713E-04  2.157546918083E-04
  1.915638629369E-04  1.698592888966E-04  1.504109508851E-04  1.330075173452E-04
  1.174550533613E-04  1.035758032609E-04  9.120704307128E-05  8.019999957351E-05
  7.041883279939E-05  6.173967894396E-05  5.404975079460E-05  4.724649291232E-05
  4.123678893336E-05  3.593621848653E-05  3.126836134250E-05  2.716414652267E-05
  2.356124419779E-05  2.040349829846E-05  1.764039784306E-05  1.522658506267E-05
  1.312139846935E-05  1.128844907399E-05  9.695228015167E-06  8.312743910537E-06
  7.115188290878E-06  6.079627522335E-06  5.185719667981E-06  4.415454784683E-06
  3.752917196924E-06  3.184068335737E-06  2.696548778732E-06  2.279498176410E-06
  1.923391800663E-06  1.619892503414E-06  1.361716926681E-06  1.142514859652E-06
  9.567606934071E-07  7.996559794404E-07  6.670421536711E-07  5.553225430322E-07
  4.613928265102E-07  3.825791764601E-07  3.165833588047E-07  2.614341221062E-07
  2.154442552206E-07  1.771727411291E-07  1.453914804102E-07  1.190561015402E-07
  9.728041669967E-08  7.931412093891E-08  6.452336939214E-08  5.237390170693E-08
  4.241641499533E-08  3.427391644561E-08  2.763081431529E-08  2.222353142655E-08
  1.783244858672E-08  1.427500665216E-08  1.139981534458E-08  9.081634520925E-09
  7.217109500752E-09  5.721156381192E-09  4.523906129230E-09  3.568127745878E-09
  2.807061053870E-09  2.202598774602E-09  1.723765631551E-09  1.345449341783E-09
  1.047344624925E-09  8.130768550556E-10  6.294767845726E-10  4.859819538683E-10
  3.741440349505E-10  2.872244973362E-10  2.198637356508E-10  1.678109521190E-10
  1.241143011723E-10  9.425550071959E-11  7.136305777730E-11  5.386501695011E-11
  4.053136970012E-11  3.040263311692E-11  2.273268056190E-11  1.694312472499E-11
  1.258703473814E-11  9.320170420869E-12  6.878250514025E-12  5.059048312990E-12
  3.708336445384E-12  2.708890389851E-12  1.971914327087E-12  1.430378700077E-12
  1.033861232634E-12  7.445661677815E-13  5.342635537536E-13  3.819443875676E-13
  2.720307142206E-13  1.930143611494E-13  1.364255085565E-13  9.605411398365E-14
  6.736443887415E-14  4.705647749672E-14  3.273870696418E-14  2.268486323842E-14
  1.565388813446E-14  1.075717729467E-14  7.361101815478E-15  5.015726086385E-15
  3.402899373340E-15  2.298615123509E-15  1.545832888404E-15  1.034939471255E-15
  6.897634795013E-16  4.576091593451E-16  3.021862009557E-16  1.986167210311E-16
  1.299253222211E-16  8.458315350330E-17  5.479752937343E-17  3.532643187026E-17
  2.266076716799E-17  1.446303774182E-17  9.183922914104E-18  5.801684988577E-18
  3.645946962153E-18  2.279132605383E-18  1.417112456182E-18  8.763681900574E-19
  5.389993257187E-19  3.296708754780E-19  2.005094081093E-19  1.212610888990E-19
  7.291402534024E-20  4.358866783614E-20  2.590470626071E-20  1.530366945856E-20
  8.986554423266E-21  5.244934649288E-21  3.042315936192E-21  1.753693152766E-21
  1.004512228008E-21  5.717101491463E-22  3.232826242729E-22  0.000000000000E+00
  0.000000000000E+00  0.000000000000E+00  0.000000000000E+00  0.000000000000E+00
  0.000000000000E+00
</data>
</radfunc>
</valence-charge>
<pseudocore-charge matching-radius="0.687274718851"
 number-of-continuous-derivatives="4">
<annotation model-charge-form="Teter function with specified parameters" />
<radfunc>
<data npts="290">
  1.165834086350E+02  1.165705070474E+02  1.165319432381E+02  1.164676168068E+02
  1.163782043717E+02  1.162606777859E+02  1.161109595562E+02  1.159396126156E+02
  1.157470703665E+02  1.155226948047E+02  1.152699906009E+02  1.149955655392E+02
  1.146642508383E+02  1.143186286579E+02  1.139114457223E+02  1.135053727921E+02
  1.130384918124E+02  1.125966538255E+02  1.121007759819E+02  1.115445243083E+02
  1.109208963739E+02  1.103683198786E+02  1.097633912066E+02  1.091014770270E+02
  1.083776024149E+02  1.075864405491E+02  1.067223058221E+02  1.060226923448E+02
  1.052759542356E+02  1.044792969758E+02  1.036298187885E+02  1.027245162649E+02
  1.017602920897E+02  1.007339651912E+02  9.964228367219E+01  9.848194091050E+01
  9.724959524580E+01  9.594189369901E+01  9.502657918092E+01  9.407531181951E+01
  9.308712875278E+01  9.206108734943E+01  9.099627121839E+01  8.989179678331E+01
  8.874682044782E+01  8.756054637464E+01  8.633223489884E+01  8.506121159178E+01
  8.374687698708E+01  8.238871697433E+01  8.098631385892E+01  7.953935807771E+01
  7.804766055045E+01  7.651116563497E+01  7.492996464065E+01  7.330430983958E+01
  7.163462889720E+01  6.992153962496E+01  6.816586493595E+01  6.636864786089E+01
  6.453116645606E+01  6.265494840722E+01  6.074178510400E+01  5.879374492872E+01
  5.681318547141E+01  5.480276435084E+01  5.276544828914E+01  5.173771803586E+01
  5.070452005688E+01  4.966631480488E+01  4.862358287667E+01  4.757682498096E+01
  4.652656184868E+01  4.547333408238E+01  4.441770194092E+01  4.336024505566E+01
  4.230156207451E+01  4.124227023020E+01  4.018300482913E+01  3.912441865743E+01
  3.806718130075E+01  3.701197837475E+01  3.595951066318E+01  3.491049316107E+01
  3.386565402027E+01  3.282573339556E+01  3.179148218941E+01  3.076366069416E+01
  2.974303713082E+01  2.873038608421E+01  2.772648683456E+01  2.673212158682E+01
  2.574807359888E+01  2.477512521139E+01  2.381405578214E+01  2.286563952892E+01
  2.193064328592E+01  2.100982417932E+01  2.010392722886E+01  1.921368288332E+01
  1.833980449859E+01  1.748298576841E+01  1.664389811863E+01  1.582318807732E+01
  1.502147463373E+01  1.423934660054E+01  1.347735999469E+01  1.273603545318E+01
  1.201585570112E+01  1.131726309039E+01  1.064065722773E+01  9.986392712046E+00
  9.354777001325E+00  8.746068429593E+00  8.160474395047E+00  7.598149740268E+00
  7.059195345348E+00  6.543656954441E+00  6.051524255532E+00  5.582730232431E+00
  5.137150806751E+00  4.714604786243E+00  4.314854134057E+00  3.937604571449E+00
  3.582506524093E+00  3.249156419446E+00  2.937098339643E+00  2.645826031119E+00
  2.374785268614E+00  2.123376567421E+00  1.890958233752E+00  1.676849738919E+00
  1.480335398741E+00  1.300668335245E+00  1.137074693369E+00  9.887580810781E-01
  8.549041971790E-01  7.346856071958E-01  6.272666240605E-01  5.318082471762E-01
  4.474731106969E-01  3.734303897360E-01  3.088606117557E-01  2.529603196749E-01
  2.049465333406E-01  1.640609570042E-01  1.295738823699E-01  1.007877396758E-01
  7.704025314486E-02  5.770716198071E-02  4.220447387221E-02  2.999022462401E-02
  2.056572498703E-02  1.347628389130E-02  8.311405950717E-03  4.704470143778E-03
  2.331905784055E-03  9.118910661325E-04  2.026083765046E-04  9.895478338423E-08
  1.357671337080E-04  4.735910365985E-04  9.071020399525E-04  1.356199310294E-03
  1.763868122545E-03  2.092871326681E-03  2.322482163729E-03  2.445323611362E-03
  2.464374596351E-03  2.390196845817E-03  2.238428030119E-03  2.027577413286E-03
  1.777149771104E-03  1.506112216320E-03  1.231707182682E-03  9.686035914748E-04
  7.283675940434E-04  5.192246812313E-04  3.460767754221E-04  2.107315208498E-04
  1.122966381053E-04  4.769009256146E-05  1.221702004473E-05  1.668154686965E-07
  5.388358969630E-06  2.180774880384E-05  4.386074310752E-05  6.682090733924E-05
  8.701368229233E-05  1.019156605552E-04  1.101467257648E-04  1.113698534316E-04
  1.061188631726E-04  9.557793699952E-05  8.133810973913E-05  6.515519143118E-05
  4.873086095770E-05  3.353429668273E-05  2.067613943007E-05  1.084036876886E-05
  4.273417306410E-06  8.241449917269E-07  2.367774434386E-08  1.190995581115E-06
  3.548786397000E-06  6.334523608376E-06  8.893840428290E-06  1.074673600431E-05
  1.162148417070E-05  1.145575446469E-05  1.036880217414E-05  8.612094205145E-06
  6.507986649818E-06  4.386813627131E-06  2.531955223530E-06  1.140315211665E-06
  3.025402730023E-07  3.772141865503E-09  0.000000000000E+00  0.000000000000E+00
  0.000000000000E+00  0.000000000000E+00  0.000000000000E+00  0.000000000000E+00
  0.000000000000E+00  0.000000000000E+00  0.000000000000E+00  0.000000000000E+00
  0.000000000000E+00  0.000000000000E+00  0.000000000000E+00  0.000000000000E+00
  0.000000000000E+00  0.000000000000E+00  0.000000000000E+00  0.000000000000E+00
  0.000000000000E+00  0.000000000000E+00  0.000000000000E+00  0.000000000000E+00
  0.000000000000E+00  0.000000000000E+00  0.000000000000E+00  0.000000000000E+00
  0.000000000000E+00  0.000000000000E+00  0.000000000000E+00  0.000000000000E+00
  0.000000000000E+00  0.000000000000E+00  0.000000000000E+00  0.000000000000E+00
  0.000000000000E+00  0.000000000000E+00  0.000000000000E+00  0.000000000000E+00
  0.000000000000E+00  0.000000000000E+00  0.000000000000E+00  0.000000000000E+00
  0.000000000000E+00  0.000000000000E+00  0.000000000000E+00  0.000000000000E+00
  0.000000000000E+00  0.000000000000E+00  0.000000000000E+00  0.000000000000E+00
  0.000000000000E+00  0.000000000000E+00  0.000000000000E+00  0.000000000000E+00
  0.000000000000E+00  0.000000000000E+00  0.000000000000E+00  0.000000000000E+00
  0.000000000000E+00  0.000000000000E+00  0.000000000000E+00  0.000000000000E+00
  0.000000000000E+00  0.000000000000E+00  0.000000000000E+00  0.000000000000E+00
  0.000000000000E+00  0.000000000000E+00  0.000000000000E+00  0.000000000000E+00
  0.000000000000E+00  0.000000000000E+00
</data>
</radfunc>
</pseudocore-charge>
<semilocal-potentials set="scalar_relativistic">
<slps n="4" l="s" rc="1.35649932364" eref="-2.80453426880">
<radfunc>
<data npts="290">
  6.084244951623E+01  6.078277859325E+01  6.060486449911E+01  6.030957973714E+01
  5.990219564773E+01  5.937205262558E+01  5.870532666026E+01  5.795389994966E+01
  5.712395993261E+01  5.617555209604E+01  5.513081941459E+01  5.402342599571E+01
  5.272266748740E+01  5.140617228862E+01  4.990567777412E+01  4.846098593242E+01
  4.686036776783E+01  4.540191250334E+01  4.382661090335E+01  4.213241630786E+01
  4.031877993009E+01  3.878260831858E+01  3.717221874500E+01  3.548997106081E+01
  3.373912695455E+01  3.192387390309E+01  3.004932712334E+01  2.860809436685E+01
  2.713973698085E+01  2.564736882735E+01  2.413433674151E+01  2.260419450854E+01
  2.106067285726E+01  1.950764599516E+01  1.794909533275E+01  1.638907114879E+01
  1.483165302681E+01  1.328090994339E+01  1.225277748575E+01  1.123057036639E+01
  1.021543703191E+01  9.208499243043E+00  8.210847844917E+00  7.223538863257E+00
  6.247589959673E+00  5.283977273935E+00  4.333632675749E+00  3.397441443017E+00
  2.476240377944E+00  1.570816366860E+00  6.819053842401E-01 -1.898080636759E-01
 -1.043691065048E+00 -1.879162012141E+00 -2.695689912282E+00 -3.492793321227E+00
 -4.270038923143E+00 -5.027039783854E+00 -5.763453306114E+00 -6.478978917224E+00
 -7.173355520563E+00 -7.846358743419E+00 -8.497798014119E+00 -9.127513501771E+00
 -9.735372952125E+00 -1.032126845319E+01 -1.088511316431E+01 -1.115874429154E+01
 -1.142683804267E+01 -1.168938803629E+01 -1.194638860149E+01 -1.219783468074E+01
 -1.244372173467E+01 -1.268404564900E+01 -1.291880264390E+01 -1.314798918627E+01
 -1.337160190490E+01 -1.358963750924E+01 -1.380209271178E+01 -1.400896415457E+01
 -1.421024834015E+01 -1.440594156734E+01 -1.459603987212E+01 -1.478053897417E+01
 -1.495943422923E+01 -1.513272058797E+01 -1.530039256150E+01 -1.546244419407E+01
 -1.561886904340E+01 -1.576966016888E+01 -1.591481012813E+01 -1.605431098228E+01
 -1.618815431018E+01 -1.631633123190E+01 -1.643883244161E+01 -1.655564825009E+01
 -1.666676863669E+01 -1.677218331078E+01 -1.687188178237E+01 -1.696585344145E+01
 -1.705408764549E+01 -1.713657381432E+01 -1.721330153128E+01 -1.728426064963E+01
 -1.734944140258E+01 -1.740883451555E+01 -1.746243131883E+01 -1.751022385877E+01
 -1.755220500573E+01 -1.758836855677E+01 -1.761870933155E+01 -1.764322325971E+01
 -1.766190745865E+01 -1.767476030096E+01 -1.768178147103E+01 -1.768297201139E+01
 -1.767833435961E+01 -1.766787237744E+01 -1.765159137464E+01 -1.762949813059E+01
 -1.760160091736E+01 -1.756790952876E+01 -1.752843532036E+01 -1.748319126599E+01
 -1.743219203669E+01 -1.737545410884E+01 -1.731299590815E+01 -1.724483799734E+01
 -1.717100331530E+01 -1.709151747664E+01 -1.700640914097E+01 -1.691571046217E+01
 -1.681945762900E+01 -1.671769150901E+01 -1.661045840916E+01 -1.649781096724E+01
 -1.637980918932E+01 -1.625652164900E+01 -1.612802686486E+01 -1.599441487246E+01
 -1.585578900675E+01 -1.571226790936E+01 -1.556398777333E+01 -1.541110483398E+01
 -1.525379811021E+01 -1.509227239377E+01 -1.492676147561E+01 -1.475753158779E+01
 -1.458488502622E+01 -1.440916390367E+01 -1.423075396418E+01 -1.405008836845E+01